 *******************************************************************************
 ** Site#: 32691        For non-commercial use only    Version 19.179W 32BITS **
 *******************************************************************************
 ** Cite this program as: MOPAC2016, Version: 19.179W, James J. P. Stewart,   **
 ** Stewart Computational Chemistry, web: HTTP://OpenMOPAC.net. Days left: 337**
 *******************************************************************************
 **                                                                           **
 **                                MOPAC2016                                  **
 **                                                                           **
 *******************************************************************************

                              PM7 CALCULATION RESULTS

 *******************************************************************************
 *  CALCULATION DONE:                                Fri Jul 26 15:07:09 2019  *
 *  T=         - A TIME OF 172800.0 SECONDS REQUESTED
 *  DUMP=N     - RESTART FILE WRITTEN EVERY  7200.000 SECONDS
 *******************************************************************************

 2-chloro-3-nitrobenzoic acid.mop

  ATOM    CHEMICAL      BOND LENGTH      BOND ANGLE     TWIST ANGLE 
 NUMBER    SYMBOL       (ANGSTROMS)      (DEGREES)       (DEGREES) 
   (I)                     NA:I           NB:NA:I       NC:NB:NA:I       NA    NB    NC 
     1       C          0.00000000       0.0000000       0.0000000        0     0     0
     2       C          1.33389200  *    0.0000000       0.0000000        1     0     0
     3       C          1.33399500  *  118.5641850  *    0.0000000        2     1     0
     4       C          1.35086800  *  122.2519320  *   -0.0666110  *     3     2     1
     5       C          1.36228300  *  118.5341550  *   -0.0472080  *     4     3     2
     6       C          1.34930000  *  122.0825890  *    0.0888540  *     1     2     3
     7       C          1.37617200  *  113.7066390  * -179.8915510  *     6     1     2
     8       O          1.36528700  *  120.8528390  *    0.2701430  *     7     6     1
     9       O          1.21303400  *  129.6089980  * -179.9865470  *     7     6     1
    10       N          1.25895500  *  114.7312380  *  179.9138940  *     4     3     2
    11       O          1.30316900  *  125.9171370  * -179.8394900  *    10     4     3
    12       O          1.31266100  *  122.7393220  *   -0.0415710  *    10     4     3
    13      Cl          1.74786400  *  124.2456160  * -179.8742450  *     5     4     3
    14       H          1.10263300  *  114.1190770  * -179.9272980  *     1     2     3
    15       H          1.10370300  *  120.7215440  * -179.9884360  *     2     1     6
    16       H          1.10388300  *  114.1694710  *  179.9106700  *     3     2     1
    17       H          0.97054900  *  108.6325220  *  179.0255140  *     8     7     6
 


          CARTESIAN COORDINATES 

    NO.       ATOM           X           Y           Z

     1         C          0.0000      0.0000      0.0000
     2         C          1.3339      0.0000      0.0000
     3         C          1.9717      1.1716      0.0000
     4         C          1.3130      2.3510     -0.0013
     5         C         -0.0492      2.3356     -0.0037
     6         C         -0.7167      1.1432     -0.0018
     7         C         -2.0782      0.9428      0.0009
     8         O         -2.6001     -0.3188      0.0105
     9         O         -2.9794      1.7547      0.0001
    10         N          2.0545      3.3684      0.0006
    11         O          1.6519      4.6078      0.0028
    12         O          3.3649      3.2918      0.0044
    13        Cl         -1.0491      3.7692     -0.0088
    14         H         -0.4506     -1.0064      0.0013
    15         H          1.8977     -0.9488      0.0013
    16         H          3.0724      1.0870      0.0016
    17         H         -3.5683     -0.2536      0.0266

 General Reference for PM7:
 "Optimization of Parameters for Semiempirical Methods VI: More Modifications to the 
 NDDO Approximations and Re-optimization of Parameters", J. J. P. Stewart, J. Mol. Mod., 1:32, 19 (2013)
 http://www.springerlink.com/openurl.asp?genre=article&id=doi:10.1007/s00894-012-1667-x

           Empirical Formula: C7 H4 N O4 Cl  =    17 atoms



      MOLECULAR POINT GROUP   :   Cs  


      RHF CALCULATION, NO. OF DOUBLY OCCUPIED LEVELS = 34


          Geometry optimization using EF

          DIAGONAL MATRIX USED AS START HESSIAN

 CYCLE:     1 TIME:   0.047 TIME LEFT:  2.00D  GRAD.:   507.526 HEAT: -9.681266
 CYCLE:     2 TIME:   0.094 TIME LEFT:  2.00D  GRAD.:   593.512 HEAT: -23.01426
 CYCLE:     3 TIME:   0.047 TIME LEFT:  2.00D  GRAD.:   148.128 HEAT: -55.47168
 CYCLE:     4 TIME:   0.016 TIME LEFT:  2.00D  GRAD.:   138.362 HEAT: -67.31939
 CYCLE:     5 TIME:   0.031 TIME LEFT:  2.00D  GRAD.:   224.456 HEAT: -70.09473
 CYCLE:     6 TIME:   0.016 TIME LEFT:  2.00D  GRAD.:    77.314 HEAT: -71.56760
 CYCLE:     7 TIME:   0.031 TIME LEFT:  2.00D  GRAD.:    23.135 HEAT: -72.02676
 CYCLE:     8 TIME:   0.016 TIME LEFT:  2.00D  GRAD.:    15.294 HEAT: -72.23653
 CYCLE:     9 TIME:   0.047 TIME LEFT:  2.00D  GRAD.:    18.388 HEAT: -72.31282
 CYCLE:    10 TIME:   0.016 TIME LEFT:  2.00D  GRAD.:     9.067 HEAT: -72.40161
 CYCLE:    11 TIME:   0.016 TIME LEFT:  2.00D  GRAD.:     3.947 HEAT: -72.41980
 CYCLE:    12 TIME:   0.016 TIME LEFT:  2.00D  GRAD.:     5.683 HEAT: -72.41931
 CYCLE:    13 TIME:   0.031 TIME LEFT:  2.00D  GRAD.:     1.690 HEAT: -72.42763
 CYCLE:    14 TIME:   0.016 TIME LEFT:  2.00D  GRAD.:     1.035 HEAT: -72.42849
 CYCLE:    15 TIME:   0.016 TIME LEFT:  2.00D  GRAD.:     0.456 HEAT: -72.42905

     GRADIENT =  0.45615 IS LESS THAN CUTOFF =  1.00000



 -------------------------------------------------------------------------------

 2-chloro-3-nitrobenzoic acid.mop



     GEOMETRY OPTIMISED USING EIGENVECTOR FOLLOWING (EF).     
     SCF FIELD WAS ACHIEVED                                   


                              PM7 CALCULATION
                                                       MOPAC2016 (Version: 19.179W)
                                                       Fri Jul 26 15:07:09 2019
                                                       No. of days remaining = 337




          FINAL HEAT OF FORMATION =        -72.42905 KCAL/MOL =    -303.04313 KJ/MOL


          TOTAL ENERGY            =      -2545.16706 EV
          ELECTRONIC ENERGY       =     -12285.11685 EV  POINT GROUP:     Cs  
          CORE-CORE REPULSION     =       9739.94979 EV
          COSMO AREA              =        188.94 SQUARE ANGSTROMS
          COSMO VOLUME            =        192.82 CUBIC ANGSTROMS

          GRADIENT NORM           =          0.45615 = 0.11063 PER ATOM
          IONIZATION POTENTIAL    =         10.581613 EV
          HOMO LUMO ENERGIES (EV) =        -10.582 -1.822
          NO. OF FILLED LEVELS    =         34
          MOLECULAR WEIGHT        =        201.5659

          MOLECULAR DIMENSIONS (Angstroms)

            Atom       Atom       Distance
            H    17    O    12     7.92921
            H    15   Cl    13     5.56632
            O     9    O    11     0.00973


          SCF CALCULATIONS        =         18
 
          WALL-CLOCK TIME         =          0.484 SECONDS
          COMPUTATION TIME        =          0.796 SECONDS




  ATOM    CHEMICAL      BOND LENGTH      BOND ANGLE     TWIST ANGLE 
 NUMBER    SYMBOL       (ANGSTROMS)      (DEGREES)       (DEGREES) 
   (I)                     NA:I           NB:NA:I       NC:NB:NA:I       NA    NB    NC 
     1       C          0.00000000       0.0000000       0.0000000        0     0     0
     2       C          1.39323331  *    0.0000000       0.0000000        1     0     0
     3       C          1.38866537  *  119.9680398  *    0.0000000        2     1     0
     4       C          1.40312705  *  120.1059411  *   -0.0138094  *     3     2     1
     5       C          1.39957797  *  119.9593965  *   -0.0185453  *     4     3     2
     6       C          1.39876465  *  120.4735634  *    0.0267229  *     1     2     3
     7       C          1.47498519  *  118.8988123  *  179.9947424  *     6     1     2
     8       O          1.36367361  *  110.3533189  *    0.1476210  *     7     6     1
     9       O          1.20138342  *  129.9024021  * -179.8899073  *     7     6     1
    10       N          1.45948687  *  116.7307159  * -179.9946154  *     4     3     2
    11       O          1.21497846  *  119.8055582  * -179.9307866  *    10     4     3
    12       O          1.22270920  *  116.7643707  *    0.0616963  *    10     4     3
    13      Cl          1.68261013  *  121.0819438  * -179.9528002  *     5     4     3
    14       H          1.09788888  *  119.6018479  * -179.9681184  *     1     2     3
    15       H          1.09101350  *  119.9997573  * -179.9727863  *     2     1     6
    16       H          1.09942996  *  120.1838499  *  179.9689331  *     3     2     1
    17       H          0.99101568  *  112.9496026  *  179.7159363  *     8     7     6

                             CARTESIAN COORDINATES

   1    C        0.000000000     0.000000000     0.000000000
   2    C        1.393233310     0.000000000     0.000000000
   3    C        2.086895053     1.203006607     0.000000000
   4    C        1.386901147     2.419055114    -0.000292559
   5    C       -0.012676423     2.419870396    -0.000977363
   6    C       -0.709370552     1.205543718    -0.000562268
   7    C       -2.183798672     1.165009408    -0.000661857
   8    O       -2.622781354    -0.126069780     0.003139608
   9    O       -2.979500368     2.065107197    -0.002873594
  10    N        2.189113660     3.638299552    -0.000394351
  11    O        1.640339231     4.722282133     0.000627984
  12    O        3.403770970     3.498212423    -0.001391796
  13   Cl       -0.880506312     3.861413224    -0.002529898
  14    H       -0.542324069    -0.954591172     0.000531172
  15    H        1.938736057    -0.944847716    -0.000008095
  16    H        3.186317091     1.207147776     0.000515306
  17    H       -3.611162279    -0.198140211     0.007731746


           Empirical Formula: C7 H4 N O4 Cl  =    17 atoms



      MOLECULAR POINT GROUP   :   Cs  


                  EIGENVALUES  
 -37.59393 -32.42952 -32.04265 -30.96506 -30.46179 -28.29038 -28.21641 -25.97418
 -24.67445 -23.78770 -21.79093 -20.83315 -19.37326 -18.26048 -17.77805 -17.63596
 -17.37534 -16.80182 -16.46414 -16.29314 -15.63236 -14.68517 -14.45311 -13.99818
 -13.48256 -12.66188 -12.50303 -12.03551 -11.62807 -11.54732 -11.46274 -11.35071
 -10.91503 -10.58161  -1.82166  -1.54549  -0.04158   0.04610   0.55360   0.58423
   1.31821   1.39171   2.35752   2.67867   3.15882   3.27949   3.48832   3.51284
   3.98198   4.09645   4.30330   4.68785   4.84418   4.90566   4.96577   5.07683
  67.80435  67.83952  68.36446  68.78940  68.97091


              NET ATOMIC CHARGES AND DIPOLE CONTRIBUTIONS

  ATOM NO.   TYPE          CHARGE      No. of ELECS.   s-Pop       p-Pop       d-Pop       
    1          C           0.003883        3.9961     1.09999     2.89612
    2          C          -0.215418        4.2154     1.08169     3.13372
    3          C          -0.016832        4.0168     1.09986     2.91697
    4          C          -0.145941        4.1459     1.07183     3.07411
    5          C           0.095166        3.9048     1.10397     2.80087
    6          C          -0.196890        4.1969     1.06240     3.13449
    7          C           0.638526        3.3615     1.09810     2.26337
    8          O          -0.568284        6.5683     1.84020     4.72808
    9          O          -0.452947        6.4529     1.87688     4.57606
   10          N           0.629489        4.3705     1.44683     2.92368
   11          O          -0.355404        6.3554     1.93905     4.41635
   12          O          -0.406412        6.4064     1.94229     4.46412
   13         Cl           0.070458        6.9295     1.98225     4.93516     0.01213
   14          H           0.185871        0.8141     0.81413
   15          H           0.175971        0.8240     0.82403
   16          H           0.193709        0.8063     0.80629
   17          H           0.365057        0.6349     0.63494
 DIPOLE           X         Y         Z       TOTAL
 POINT-CHG.    -0.310    -5.860     0.010     5.869
 HYBRID        -0.309     0.168     0.001     0.351
 SUM           -0.619    -5.692     0.011     5.726


          ATOMIC ORBITAL ELECTRON POPULATIONS

     Atom    s        px        py        pz      x^2-y^2     xz        z^2       yz        xy
    1  C   1.09999   0.99866   1.05323   0.84423
    2  C   1.08169   1.01180   1.06894   1.05299
    3  C   1.09986   1.09804   0.95473   0.86420
    4  C   1.07183   0.96102   0.93143   1.18165
    5  C   1.10397   0.94883   0.94451   0.90753
    6  C   1.06240   0.99092   0.99285   1.15072
    7  C   1.09810   0.84973   0.73619   0.67746
    8  O   1.84020   1.42305   1.43195   1.87309
    9  O   1.87688   1.58292   1.50645   1.48669
   10  N   1.44683   0.98413   0.99151   0.94804
   11  O   1.93905   1.71767   1.17069   1.52798
   12  O   1.94229   0.99415   1.90929   1.56068
   13 Cl   1.98225   1.72636   1.28533   1.92347   0.00383   0.00060   0.00243   0.00065   0.00462
   14  H   0.81413
   15  H   0.82403
   16  H   0.80629
   17  H   0.63494

 **********************
 *                    *
 * JOB ENDED NORMALLY *
 *                    *
 **********************



 TOTAL JOB TIME:             0.48 SECONDS

 == MOPAC DONE ==
