 *******************************************************************************
 ** Site#: 32691        For non-commercial use only    Version 19.179W 32BITS **
 *******************************************************************************
 ** Cite this program as: MOPAC2016, Version: 19.179W, James J. P. Stewart,   **
 ** Stewart Computational Chemistry, web: HTTP://OpenMOPAC.net. Days left: 337**
 *******************************************************************************
 **                                                                           **
 **                                MOPAC2016                                  **
 **                                                                           **
 *******************************************************************************

                              PM7 CALCULATION RESULTS

 *******************************************************************************
 *  CALCULATION DONE:                                Fri Jul 26 14:32:44 2019  *
 *  T=         - A TIME OF 172800.0 SECONDS REQUESTED
 *  DUMP=N     - RESTART FILE WRITTEN EVERY  7200.000 SECONDS
 *******************************************************************************

 2-chloro-5-nitrobenzaldehyde2.mop

  ATOM    CHEMICAL      BOND LENGTH      BOND ANGLE     TWIST ANGLE 
 NUMBER    SYMBOL       (ANGSTROMS)      (DEGREES)       (DEGREES) 
   (I)                     NA:I           NB:NA:I       NC:NB:NA:I       NA    NB    NC 
     1       C          0.00000000       0.0000000       0.0000000        0     0     0
     2       C          1.34951500  *    0.0000000       0.0000000        1     0     0
     3       C          1.34788000  *  123.4705360  *    0.0000000        2     1     0
     4       C          1.34479400  *  117.3193510  *   -0.0002450  *     3     2     1
     5       C          1.33994200  *  120.6034910  *   -0.0000160  *     4     3     2
     6       C          1.35144800  *  117.5782660  *    0.0003240  *     1     2     3
     7       C          1.36574400  *  117.3003300  * -179.9995910  *     1     2     3
     8       O          1.21040700  *  128.8395940  *  179.9993500  *     7     1     2
     9       N          1.25732500  *  121.2517520  *  179.9996750  *     3     2     1
    10       O          1.31237100  *  122.7939870  * -179.9997160  *     9     3     2
    11       O          1.31294800  *  122.3320290  *    0.0000530  *     9     3     2
    12      Cl          1.73176900  *  124.9537120  *  179.9997450  *     6     1     2
    13       H          1.10379200  *  118.4472730  * -179.9999250  *     2     1     6
    14       H          1.10332400  *  121.7384370  *  180.0000000  *     4     3     2
    15       H          1.10427000  *  118.0109410  * -179.9999050  *     5     4     3
    16       H          1.11732800  *  115.1793880  *   -0.0004980  *     7     1     2
 


          CARTESIAN COORDINATES 

    NO.       ATOM           X           Y           Z

     1         C          0.0000      0.0000      0.0000
     2         C          1.3495      0.0000      0.0000
     3         C          2.0929      1.1244      0.0000
     4         C          1.4366      2.2981     -0.0000
     5         C          0.0971      2.3307     -0.0000
     6         C         -0.6257      1.1979     -0.0000
     7         C         -0.6264     -1.2136      0.0000
     8         O         -1.8123     -1.4557      0.0000
     9         N          3.3493      1.0757      0.0000
    10         O          4.1022      2.1505      0.0000
    11         O          4.0080     -0.0601      0.0000
    12        Cl         -2.3431      1.4202     -0.0000
    13         H          1.8753     -0.9705      0.0000
    14         H          1.9724      3.2627     -0.0000
    15         H         -0.3977      3.3180     -0.0000
    16         H          0.0541     -2.0998      0.0000

 General Reference for PM7:
 "Optimization of Parameters for Semiempirical Methods VI: More Modifications to the 
 NDDO Approximations and Re-optimization of Parameters", J. J. P. Stewart, J. Mol. Mod., 1:32, 19 (2013)
 http://www.springerlink.com/openurl.asp?genre=article&id=doi:10.1007/s00894-012-1667-x

           Empirical Formula: C7 H4 N O3 Cl  =    16 atoms



      MOLECULAR POINT GROUP   :   Cs  


      RHF CALCULATION, NO. OF DOUBLY OCCUPIED LEVELS = 31


          Geometry optimization using EF

          DIAGONAL MATRIX USED AS START HESSIAN

 CYCLE:     1 TIME:   0.016 TIME LEFT:  2.00D  GRAD.:   590.777 HEAT:  43.31197
 CYCLE:     2 TIME:   0.156 TIME LEFT:  2.00D  GRAD.:   596.595 HEAT:  33.52934
 CYCLE:     3 TIME:   0.031 TIME LEFT:  2.00D  GRAD.:   220.708 HEAT: -2.356685
 CYCLE:     4 TIME:   0.016 TIME LEFT:  2.00D  GRAD.:   352.904 HEAT: -10.83438
 CYCLE:     5 TIME:   0.031 TIME LEFT:  2.00D  GRAD.:   252.578 HEAT: -12.43368
 CYCLE:     6 TIME:   0.016 TIME LEFT:  2.00D  GRAD.:    80.307 HEAT: -14.83573
 CYCLE:     7 TIME:   0.016 TIME LEFT:  2.00D  GRAD.:   105.902 HEAT: -15.48903
 CYCLE:     8 TIME:   0.031 TIME LEFT:  2.00D  GRAD.:    50.298 HEAT: -15.73861
 CYCLE:     9 TIME:   0.016 TIME LEFT:  2.00D  GRAD.:    22.538 HEAT: -15.98878
 CYCLE:    10 TIME:   0.047 TIME LEFT:  2.00D  GRAD.:    13.485 HEAT: -16.06753
 CYCLE:    11 TIME:   0.016 TIME LEFT:  2.00D  GRAD.:    14.926 HEAT: -16.08346
 CYCLE:    12 TIME:   0.016 TIME LEFT:  2.00D  GRAD.:     3.152 HEAT: -16.12250
 CYCLE:    13 TIME:   0.016 TIME LEFT:  2.00D  GRAD.:     1.801 HEAT: -16.13208
 CYCLE:    14 TIME:   0.016 TIME LEFT:  2.00D  GRAD.:     0.740 HEAT: -16.13580

     GRADIENT =  0.74012 IS LESS THAN CUTOFF =  1.00000



 -------------------------------------------------------------------------------

 2-chloro-5-nitrobenzaldehyde2.mop



     GEOMETRY OPTIMISED USING EIGENVECTOR FOLLOWING (EF).     
     SCF FIELD WAS ACHIEVED                                   


                              PM7 CALCULATION
                                                       MOPAC2016 (Version: 19.179W)
                                                       Fri Jul 26 14:32:45 2019
                                                       No. of days remaining = 337




          FINAL HEAT OF FORMATION =        -16.13580 KCAL/MOL =     -67.51220 KJ/MOL


          TOTAL ENERGY            =      -2249.23114 EV
          ELECTRONIC ENERGY       =     -10366.09000 EV  POINT GROUP:     Cs  
          CORE-CORE REPULSION     =       8116.85886 EV
          COSMO AREA              =        184.73 SQUARE ANGSTROMS
          COSMO VOLUME            =        185.43 CUBIC ANGSTROMS

          GRADIENT NORM           =          0.74012 = 0.18503 PER ATOM
          IONIZATION POTENTIAL    =         10.676222 EV
          HOMO LUMO ENERGIES (EV) =        -10.676 -1.897
          NO. OF FILLED LEVELS    =         31
          MOLECULAR WEIGHT        =        185.5665

          MOLECULAR DIMENSIONS (Angstroms)

            Atom       Atom       Distance
            O    10    O     8     7.06415
            H    15    O    11     5.20995
            H    16    C     6     0.00070


          SCF CALCULATIONS        =         17
 
          WALL-CLOCK TIME         =          0.484 SECONDS
          COMPUTATION TIME        =          0.796 SECONDS




  ATOM    CHEMICAL      BOND LENGTH      BOND ANGLE     TWIST ANGLE 
 NUMBER    SYMBOL       (ANGSTROMS)      (DEGREES)       (DEGREES) 
   (I)                     NA:I           NB:NA:I       NC:NB:NA:I       NA    NB    NC 
     1       C          0.00000000       0.0000000       0.0000000        0     0     0
     2       C          1.39737998  *    0.0000000       0.0000000        1     0     0
     3       C          1.39505446  *  119.6396134  *    0.0000000        2     1     0
     4       C          1.40103905  *  121.4694458  *   -0.0011376  *     3     2     1
     5       C          1.38823781  *  119.0223575  *   -0.0139359  *     4     3     2
     6       C          1.39468062  *  118.4438169  *   -0.0120683  *     1     2     3
     7       C          1.48712768  *  117.8747517  *  179.9906324  *     1     2     3
     8       O          1.20358490  *  123.1397243  *  179.9942560  *     7     1     2
     9       N          1.45610325  *  119.2200683  * -179.9890384  *     3     2     1
    10       O          1.21921001  *  118.0615475  *  179.9927221  *     9     3     2
    11       O          1.22002001  *  117.9007133  *   -0.0046860  *     9     3     2
    12      Cl          1.69415792  *  120.9999732  *  179.9906170  *     6     1     2
    13       H          1.09863581  *  120.5466573  *  179.9984684  *     2     1     6
    14       H          1.09739189  *  120.1201123  *  179.9994930  *     4     3     2
    15       H          1.09303392  *  120.0216730  *  179.9920936  *     5     4     3
    16       H          1.10029650  *  116.1740070  *   -0.0036009  *     7     1     2

                             CARTESIAN COORDINATES

   1    C        0.000000000     0.000000000     0.000000000
   2    C        1.397379982     0.000000000     0.000000000
   3    C        2.087294266     1.212516077     0.000000000
   4    C        1.410390717     2.439183111    -0.000023727
   5    C        0.022156596     2.442367258    -0.000342974
   6    C       -0.664281888     1.226321141     0.000258303
   7    C       -0.695292157    -1.314578834    -0.000214927
   8    O       -1.893799102    -1.425022018    -0.000131949
   9    N        3.543358463     1.201853953    -0.000243127
  10    O        4.124761564     2.273508497    -0.000375073
  11    O        4.106345299     0.119497889    -0.000350965
  12   Cl       -2.356754086     1.301878179     0.000036403
  13    H        1.955750468    -0.946162253    -0.000174000
  14    H        1.975407851     3.379940575    -0.000014815
  15    H       -0.522546295     3.390007433    -0.000235722
  16    H       -0.049311863    -2.205287429    -0.000422614


           Empirical Formula: C7 H4 N O3 Cl  =    16 atoms



      MOLECULAR POINT GROUP   :   Cs  


                  EIGENVALUES  
 -37.60802 -32.37477 -31.73713 -31.03319 -28.53936 -27.98537 -26.52190 -24.19595
 -23.71701 -22.39955 -20.76284 -19.20771 -18.42485 -17.67430 -17.16153 -17.02734
 -16.55078 -15.90258 -15.60164 -15.14064 -14.29004 -13.94208 -13.76339 -12.60223
 -11.76371 -11.66684 -11.61580 -11.47669 -11.33432 -10.76766 -10.67622  -1.89687
  -1.54744  -0.20416   0.19497   0.39537   0.40616   1.25323   2.32318   2.77917
   3.06405   3.22049   3.32763   3.54699   3.89600   4.11997   4.33760   4.52118
   4.60313   4.62333   4.87470   4.93365  68.24673  68.26934  68.56039  68.96408
  69.03953


              NET ATOMIC CHARGES AND DIPOLE CONTRIBUTIONS

  ATOM NO.   TYPE          CHARGE      No. of ELECS.   s-Pop       p-Pop       d-Pop       
    1          C          -0.215357        4.2154     1.07808     3.13728
    2          C          -0.031440        4.0314     1.09659     2.93485
    3          C          -0.117011        4.1170     1.07538     3.04163
    4          C          -0.030901        4.0309     1.09628     2.93462
    5          C          -0.217049        4.2170     1.08332     3.13373
    6          C           0.109947        3.8901     1.10782     2.78223
    7          C           0.335399        3.6646     1.13405     2.53055
    8          O          -0.379319        6.3793     1.87778     4.50154
    9          N           0.627590        4.3724     1.44890     2.92351
   10          O          -0.388177        6.3882     1.94158     4.44660
   11          O          -0.393385        6.3934     1.94174     4.45165
   12         Cl           0.001369        6.9986     1.98197     5.00776     0.00891
   13          H           0.191735        0.8083     0.80827
   14          H           0.192758        0.8072     0.80724
   15          H           0.188336        0.8117     0.81166
   16          H           0.125505        0.8745     0.87450
 DIPOLE           X         Y         Z       TOTAL
 POINT-CHG.    -1.293     0.698     0.000     1.470
 HYBRID         0.337     0.117     0.000     0.356
 SUM           -0.957     0.815     0.001     1.257


          ATOMIC ORBITAL ELECTRON POPULATIONS

     Atom    s        px        py        pz      x^2-y^2     xz        z^2       yz        xy
    1  C   1.07808   0.99990   1.02974   1.10764
    2  C   1.09659   0.99257   1.05712   0.88516
    3  C   1.07538   0.88052   1.00789   1.15321
    4  C   1.09628   1.00070   1.05094   0.88299
    5  C   1.08332   1.01292   1.06383   1.05698
    6  C   1.10782   0.90174   0.97667   0.90382
    7  C   1.13405   0.88084   0.94984   0.69988
    8  O   1.87778   1.26252   1.90255   1.33646
    9  N   1.44890   1.00532   0.97434   0.94386
   10  O   1.94158   1.72057   1.18163   1.54440
   11  O   1.94174   1.73481   1.16896   1.54788
   12 Cl   1.98197   1.08524   1.98569   1.93683   0.00380   0.00069   0.00177   0.00021   0.00242
   13  H   0.80827
   14  H   0.80724
   15  H   0.81166
   16  H   0.87450

 **********************
 *                    *
 * JOB ENDED NORMALLY *
 *                    *
 **********************



 TOTAL JOB TIME:             0.52 SECONDS

 == MOPAC DONE ==
