 *******************************************************************************
 ** Site#: 32691        For non-commercial use only    Version 19.179W 32BITS **
 *******************************************************************************
 ** Cite this program as: MOPAC2016, Version: 19.179W, James J. P. Stewart,   **
 ** Stewart Computational Chemistry, web: HTTP://OpenMOPAC.net. Days left: 339**
 *******************************************************************************
 **                                                                           **
 **                                MOPAC2016                                  **
 **                                                                           **
 *******************************************************************************

                              PM7 CALCULATION RESULTS

 *******************************************************************************
 *  CALCULATION DONE:                                Wed Jul 24 15:56:25 2019  *
 *  T=         - A TIME OF 172800.0 SECONDS REQUESTED
 *  DUMP=N     - RESTART FILE WRITTEN EVERY  7200.000 SECONDS
 *******************************************************************************

 2-chloro-5-nitrobenzaldehyde.mop

  ATOM    CHEMICAL      BOND LENGTH      BOND ANGLE     TWIST ANGLE 
 NUMBER    SYMBOL       (ANGSTROMS)      (DEGREES)       (DEGREES) 
   (I)                     NA:I           NB:NA:I       NC:NB:NA:I       NA    NB    NC 
     1       C          0.00000000       0.0000000       0.0000000        0     0     0
     2       C          1.35064200  *    0.0000000       0.0000000        1     0     0
     3       C          1.34196900  *  120.2516280  *    0.0000000        2     1     0
     4       C          1.33943400  *  120.5680700  *   -0.0001440  *     3     2     1
     5       C          1.34607800  *  120.9273580  *   -0.0001320  *     4     3     2
     6       C          1.34908100  *  117.9010390  *    0.0002640  *     1     2     3
     7       N          1.25785800  *  120.4647150  * -179.9997650  *     5     4     3
     8       O          1.31224400  *  122.9935800  *  179.9998050  *     7     5     4
     9       O          1.31326600  *  122.6341500  *   -0.0000130  *     7     5     4
    10       C          1.36491900  *  122.3906510  * -179.9997180  *     1     2     3
    11       O          1.21256500  *  127.6674980  *  179.9996660  *    10     1     2
    12      Cl          1.73259200  *  123.6432450  * -179.9998070  *     2     1     6
    13       H          1.10395000  *  120.9019600  *  179.9998460  *     3     2     1
    14       H          1.10343300  *  117.1588150  *  179.9999730  *     4     3     2
    15       H          1.10275100  *  118.7198310  *  179.9998570  *     6     1     2
    16       H          1.11347800  *  116.3340120  *   -0.0002420  *    10     1     2
 


          CARTESIAN COORDINATES 

    NO.       ATOM           X           Y           Z

     1         C          0.0000      0.0000      0.0000
     2         C          1.3506      0.0000      0.0000
     3         C          2.0267      1.1592      0.0000
     4         C          1.3737      2.3287     -0.0000
     5         C          0.0282      2.3697     -0.0000
     6         C         -0.6313      1.1923     -0.0000
     7         N         -0.5762      3.4728     -0.0000
     8         O         -1.8848      3.5707     -0.0000
     9         O          0.0534      4.6253     -0.0000
    10         C         -0.7312     -1.1526      0.0000
    11         O         -1.9386     -1.2641      0.0000
    12        Cl          2.3105     -1.4424      0.0000
    13         H          3.1306      1.1718      0.0000
    14         H          1.9853      3.2471     -0.0000
    15         H         -1.7339      1.2080     -0.0000
    16         H         -0.1531     -2.1042      0.0000

 General Reference for PM7:
 "Optimization of Parameters for Semiempirical Methods VI: More Modifications to the 
 NDDO Approximations and Re-optimization of Parameters", J. J. P. Stewart, J. Mol. Mod., 1:32, 19 (2013)
 http://www.springerlink.com/openurl.asp?genre=article&id=doi:10.1007/s00894-012-1667-x

           Empirical Formula: C7 H4 N O3 Cl  =    16 atoms



      MOLECULAR POINT GROUP   :   Cs  


      RHF CALCULATION, NO. OF DOUBLY OCCUPIED LEVELS = 31


          Geometry optimization using EF

          DIAGONAL MATRIX USED AS START HESSIAN

 CYCLE:     1 TIME:   0.047 TIME LEFT:  2.00D  GRAD.:   664.784 HEAT:  42.26504
 CYCLE:     2 TIME:   0.062 TIME LEFT:  2.00D  GRAD.:   594.790 HEAT:  36.78786
 CYCLE:     3 TIME:   0.047 TIME LEFT:  2.00D  GRAD.:   342.802 HEAT: -1.581436
 CYCLE:     4 TIME:   0.062 TIME LEFT:  2.00D  GRAD.:   426.556 HEAT: -4.597196
 CYCLE:     5 TIME:   0.031 TIME LEFT:  2.00D  GRAD.:    89.400 HEAT: -11.87117
 CYCLE:     6 TIME:   0.031 TIME LEFT:  2.00D  GRAD.:    39.873 HEAT: -15.35055
 CYCLE:     7 TIME:   0.031 TIME LEFT:  2.00D  GRAD.:    76.702 HEAT: -15.61491
 CYCLE:     8 TIME:   0.016 TIME LEFT:  2.00D  GRAD.:    24.092 HEAT: -16.73214
 CYCLE:     9 TIME:   0.031 TIME LEFT:  2.00D  GRAD.:     8.818 HEAT: -16.94234
 CYCLE:    10 TIME:   0.047 TIME LEFT:  2.00D  GRAD.:     8.709 HEAT: -16.98550
 CYCLE:    11 TIME:   0.016 TIME LEFT:  2.00D  GRAD.:     5.215 HEAT: -17.04727
 CYCLE:    12 TIME:   0.016 TIME LEFT:  2.00D  GRAD.:     5.116 HEAT: -17.07659
 CYCLE:    13 TIME:   0.016 TIME LEFT:  2.00D  GRAD.:     2.126 HEAT: -17.08299
 CYCLE:    14 TIME:   0.016 TIME LEFT:  2.00D  GRAD.:     0.704 HEAT: -17.08529

     GRADIENT =  0.70407 IS LESS THAN CUTOFF =  1.00000



 -------------------------------------------------------------------------------

 2-chloro-5-nitrobenzaldehyde.mop



     GEOMETRY OPTIMISED USING EIGENVECTOR FOLLOWING (EF).     
     SCF FIELD WAS ACHIEVED                                   


                              PM7 CALCULATION
                                                       MOPAC2016 (Version: 19.179W)
                                                       Wed Jul 24 15:56:25 2019
                                                       No. of days remaining = 339




          FINAL HEAT OF FORMATION =        -17.08529 KCAL/MOL =     -71.48487 KJ/MOL


          TOTAL ENERGY            =      -2249.26963 EV
          ELECTRONIC ENERGY       =     -10363.19671 EV  POINT GROUP:     Cs  
          CORE-CORE REPULSION     =       8113.92708 EV
          COSMO AREA              =        185.96 SQUARE ANGSTROMS
          COSMO VOLUME            =        186.50 CUBIC ANGSTROMS

          GRADIENT NORM           =          0.70407 = 0.17602 PER ATOM
          IONIZATION POTENTIAL    =         10.907854 EV
          HOMO LUMO ENERGIES (EV) =        -10.908 -1.967
          NO. OF FILLED LEVELS    =         31
          MOLECULAR WEIGHT        =        185.5665

          MOLECULAR DIMENSIONS (Angstroms)

            Atom       Atom       Distance
            H    16    O     9     6.92497
            H    13    O     8     5.19429
           Cl    12    O    11     0.00388


          SCF CALCULATIONS        =         19
 
          WALL-CLOCK TIME         =          0.500 SECONDS
          COMPUTATION TIME        =          0.858 SECONDS




  ATOM    CHEMICAL      BOND LENGTH      BOND ANGLE     TWIST ANGLE 
 NUMBER    SYMBOL       (ANGSTROMS)      (DEGREES)       (DEGREES) 
   (I)                     NA:I           NB:NA:I       NC:NB:NA:I       NA    NB    NC 
     1       C          0.00000000       0.0000000       0.0000000        0     0     0
     2       C          1.39237367  *    0.0000000       0.0000000        1     0     0
     3       C          1.39182614  *  122.5558446  *    0.0000000        2     1     0
     4       C          1.39092596  *  118.9041643  *   -0.0400388  *     3     2     1
     5       C          1.40000683  *  119.1386367  *    0.0098328  *     4     3     2
     6       C          1.39713625  *  118.4989679  *    0.0457202  *     1     2     3
     7       N          1.45742109  *  119.0533823  * -179.9717166  *     5     4     3
     8       O          1.21828780  *  118.0635693  *  179.9269144  *     7     5     4
     9       O          1.22010915  *  117.7999638  *   -0.0688770  *     7     5     4
    10       C          1.48801705  *  123.2928953  * -179.9610097  *     1     2     3
    11       O          1.20575339  *  120.4135446  * -179.9976566  *    10     1     2
    12      Cl          1.70430059  *  119.9025091  * -179.9719490  *     2     1     6
    13       H          1.09239116  *  121.0242856  *  179.9584550  *     3     2     1
    14       H          1.09769263  *  120.6769050  * -179.9947318  *     4     3     2
    15       H          1.10350147  *  119.8830852  *  179.9943217  *     6     1     2
    16       H          1.09585964  *  118.5592985  *    0.0000946  *    10     1     2

                             CARTESIAN COORDINATES

   1    C        0.000000000     0.000000000     0.000000000
   2    C        1.392373673     0.000000000     0.000000000
   3    C        2.141345077     1.173124813     0.000000000
   4    C        1.476799795     2.395030652    -0.000850910
   5    C        0.076869523     2.409658059    -0.001471118
   6    C       -0.666633683     1.227838861    -0.000979775
   7    N       -0.617539137     3.691013021    -0.002991255
   8    O       -1.835797071     3.682694701    -0.004882264
   9    O        0.060233021     4.705552747    -0.002365764
  10    C       -0.816801092    -1.243796613     0.000846414
  11    O       -2.021032250    -1.183228047     0.000762668
  12   Cl        2.242011320    -1.477415360     0.000455613
  13    H        3.233345778     1.143927992     0.000678781
  14    H        2.038587455     3.338070265    -0.000961444
  15    H       -1.769813169     1.254493917    -0.001095868
  16    H       -0.299831782    -2.210052606     0.001505549


           Empirical Formula: C7 H4 N O3 Cl  =    16 atoms



      MOLECULAR POINT GROUP   :   Cs  


                  EIGENVALUES  
 -37.56211 -32.45673 -31.73099 -30.98376 -28.78180 -27.70103 -26.68214 -24.52137
 -23.83530 -21.94900 -21.03630 -19.40947 -18.32842 -17.62181 -17.26024 -17.09732
 -16.31415 -15.92004 -15.64798 -15.22516 -14.36217 -14.14544 -13.67456 -12.84375
 -12.17548 -11.59323 -11.55407 -11.42206 -11.31378 -10.93760 -10.90785  -1.96722
  -1.48159  -0.23129  -0.11720   0.36938   0.39577   1.24167   2.31192   2.72535
   3.05520   3.22397   3.25419   3.56621   3.91088   4.14767   4.28079   4.60726
   4.62138   4.74442   4.87899   5.01592  68.20569  68.22542  68.31599  68.59541
  68.63118


              NET ATOMIC CHARGES AND DIPOLE CONTRIBUTIONS

  ATOM NO.   TYPE          CHARGE      No. of ELECS.   s-Pop       p-Pop       d-Pop       
    1          C          -0.218087        4.2181     1.07833     3.13975
    2          C           0.095076        3.9049     1.10619     2.79874
    3          C          -0.213691        4.2137     1.08173     3.13197
    4          C          -0.029322        4.0293     1.09694     2.93238
    5          C          -0.121343        4.1213     1.07803     3.04331
    6          C           0.001748        3.9983     1.10186     2.89639
    7          N           0.625509        4.3745     1.44895     2.92554
    8          O          -0.377380        6.3774     1.94157     4.43581
    9          O          -0.392797        6.3928     1.94184     4.45095
   10          C           0.342778        3.6572     1.13543     2.52179
   11          O          -0.393960        6.3940     1.87963     4.51434
   12         Cl          -0.047312        7.0473     1.98212     5.05788     0.00731
   13          H           0.187514        0.8125     0.81249
   14          H           0.194031        0.8060     0.80597
   15          H           0.213943        0.7861     0.78606
   16          H           0.133292        0.8667     0.86671
 DIPOLE           X         Y         Z       TOTAL
 POINT-CHG.     4.310    -2.857     0.005     5.171
 HYBRID        -0.291     0.551    -0.001     0.623
 SUM            4.019    -2.306     0.004     4.634


          ATOMIC ORBITAL ELECTRON POPULATIONS

     Atom    s        px        py        pz      x^2-y^2     xz        z^2       yz        xy
    1  C   1.07833   0.98594   1.04607   1.10775
    2  C   1.10619   0.95558   0.90701   0.93614
    3  C   1.08173   1.10208   0.97269   1.05720
    4  C   1.09694   0.98639   1.06538   0.88061
    5  C   1.07803   0.97984   0.91493   1.14854
    6  C   1.10186   1.10555   0.94290   0.84794
    7  N   1.44895   0.98252   0.99701   0.94601
    8  O   1.94157   0.97527   1.92155   1.53899
    9  O   1.94184   1.61962   1.28249   1.54885
   10  C   1.13543   0.86478   0.96629   0.69072
   11  O   1.87963   1.25470   1.91470   1.34493
   12 Cl   1.98212   1.76982   1.33647   1.95160   0.00262   0.00022   0.00145   0.00051   0.00251
   13  H   0.81249
   14  H   0.80597
   15  H   0.78606
   16  H   0.86671

 **********************
 *                    *
 * JOB ENDED NORMALLY *
 *                    *
 **********************



 TOTAL JOB TIME:             0.50 SECONDS

 == MOPAC DONE ==
