 *******************************************************************************
 ** Site#: 32691        For non-commercial use only    Version 19.179W 32BITS **
 *******************************************************************************
 ** Cite this program as: MOPAC2016, Version: 19.179W, James J. P. Stewart,   **
 ** Stewart Computational Chemistry, web: HTTP://OpenMOPAC.net. Days left: 337**
 *******************************************************************************
 **                                                                           **
 **                                MOPAC2016                                  **
 **                                                                           **
 *******************************************************************************

                              PM7 CALCULATION RESULTS

 *******************************************************************************
 *  CALCULATION DONE:                                Fri Jul 26 15:07:16 2019  *
 *  T=         - A TIME OF 172800.0 SECONDS REQUESTED
 *  DUMP=N     - RESTART FILE WRITTEN EVERY  7200.000 SECONDS
 *******************************************************************************

 2-chloro-3-nitrobenzoic acid2.mop

  ATOM    CHEMICAL      BOND LENGTH      BOND ANGLE     TWIST ANGLE 
 NUMBER    SYMBOL       (ANGSTROMS)      (DEGREES)       (DEGREES) 
   (I)                     NA:I           NB:NA:I       NC:NB:NA:I       NA    NB    NC 
     1       C          0.00000000       0.0000000       0.0000000        0     0     0
     2       C          1.36262300  *    0.0000000       0.0000000        1     0     0
     3       C          1.35001600  *  118.8973430  *    0.0000000        2     1     0
     4       C          1.33411300  *  122.0296200  *    0.1087450  *     3     2     1
     5       C          1.33441400  *  118.6545280  *    0.2172450  *     4     3     2
     6       C          1.36767900  *  119.6119010  *   -0.3804030  *     1     2     3
     7       C          1.37757500  *  125.9410650  * -179.5034360  *     6     1     2
     8       O          1.35817500  *  126.8262070  *    0.1832630  *     7     6     1
     9       N          1.25760000  *  126.4427100  *  179.1967590  *     2     1     6
    10       O          1.31319000  *  124.2277180  * -179.8876750  *     9     2     1
    11       O          1.21523600  *  122.7890290  *  179.6991730  *     7     6     1
    12       O          1.29883700  *  124.1645250  *   -0.7206290  *     9     2     1
    13      Cl          1.75205400  *  125.5611360  *  178.9418400  *     1     2     3
    14       H          1.10388900  *  123.3384350  *  179.9564520  *     3     2     1
    15       H          1.10364700  *  120.6209400  *  179.9375530  *     4     3     2
    16       H          1.10267600  *  114.0709220  *  179.7318580  *     5     4     3
    17       H          0.97094300  *  107.8540140  *  177.5252870  *     8     7     6
 


          CARTESIAN COORDINATES 

    NO.       ATOM           X           Y           Z

     1         C          0.0000      0.0000      0.0000
     2         C          1.3626      0.0000      0.0000
     3         C          2.0150      1.1819      0.0000
     4         C          1.3667      2.3479      0.0021
     5         C          0.0324      2.3382      0.0088
     6         C         -0.6758      1.1890      0.0079
     7         C         -2.0449      1.3408      0.0186
     8         O         -2.9738      0.3500      0.0267
     9         N          2.1097     -1.0117      0.0075
    10         O          3.4219     -0.9609      0.0092
    11         O         -2.5864      2.4287      0.0306
    12         O          1.6785     -2.2366      0.0300
    13        Cl         -1.0189     -1.4250     -0.0263
    14         H          3.1156      1.2674      0.0007
    15         H          1.9237      3.3008      0.0031
    16         H         -0.4247      3.3417      0.0149
    17         H         -3.8507      0.7644      0.0732

 General Reference for PM7:
 "Optimization of Parameters for Semiempirical Methods VI: More Modifications to the 
 NDDO Approximations and Re-optimization of Parameters", J. J. P. Stewart, J. Mol. Mod., 1:32, 19 (2013)
 http://www.springerlink.com/openurl.asp?genre=article&id=doi:10.1007/s00894-012-1667-x

           Empirical Formula: C7 H4 N O4 Cl  =    17 atoms



      MOLECULAR POINT GROUP   :   Cs  


      RHF CALCULATION, NO. OF DOUBLY OCCUPIED LEVELS = 34


          Geometry optimization using EF

          DIAGONAL MATRIX USED AS START HESSIAN

 CYCLE:     1 TIME:   0.078 TIME LEFT:  2.00D  GRAD.:   586.272 HEAT: -9.199555
 CYCLE:     2 TIME:   0.094 TIME LEFT:  2.00D  GRAD.:   626.749 HEAT: -15.11064
 CYCLE:     3 TIME:   0.031 TIME LEFT:  2.00D  GRAD.:   251.115 HEAT: -52.43295
 CYCLE:     4 TIME:   0.031 TIME LEFT:  2.00D  GRAD.:   582.167 HEAT: -61.54309
 CYCLE:     5 TIME:   0.031 TIME LEFT:  2.00D  GRAD.:   350.969 HEAT: -62.15493
 CYCLE:     6 TIME:   0.016 TIME LEFT:  2.00D  GRAD.:   184.625 HEAT: -68.95421
 CYCLE:     7 TIME:   0.016 TIME LEFT:  2.00D  GRAD.:   167.910 HEAT: -70.07619
 CYCLE:     8 TIME:   0.031 TIME LEFT:  2.00D  GRAD.:    41.198 HEAT: -71.40228
 CYCLE:     9 TIME:   0.016 TIME LEFT:  2.00D  GRAD.:    33.628 HEAT: -71.73799
 CYCLE:    10 TIME:   0.016 TIME LEFT:  2.00D  GRAD.:     7.948 HEAT: -71.94457
 CYCLE:    11 TIME:   0.047 TIME LEFT:  2.00D  GRAD.:    11.761 HEAT: -71.98608
 CYCLE:    12 TIME:   0.016 TIME LEFT:  2.00D  GRAD.:     9.255 HEAT: -72.04882
 CYCLE:    13 TIME:   0.031 TIME LEFT:  2.00D  GRAD.:     2.688 HEAT: -72.06747
 CYCLE:    14 TIME:   0.062 TIME LEFT:  2.00D  GRAD.:     1.200 HEAT: -72.07091
 CYCLE:    15 TIME:   0.062 TIME LEFT:  2.00D  GRAD.:     1.140 HEAT: -72.07270
 CYCLE:    16 TIME:   0.031 TIME LEFT:  2.00D  GRAD.:     0.773 HEAT: -72.07403

     GRADIENT =  0.77290 IS LESS THAN CUTOFF =  1.00000



 -------------------------------------------------------------------------------

 2-chloro-3-nitrobenzoic acid2.mop



     GEOMETRY OPTIMISED USING EIGENVECTOR FOLLOWING (EF).     
     SCF FIELD WAS ACHIEVED                                   


                              PM7 CALCULATION
                                                       MOPAC2016 (Version: 19.179W)
                                                       Fri Jul 26 15:07:16 2019
                                                       No. of days remaining = 337




          FINAL HEAT OF FORMATION =        -72.07403 KCAL/MOL =    -301.55774 KJ/MOL


          TOTAL ENERGY            =      -2545.15129 EV
          ELECTRONIC ENERGY       =     -12304.84860 EV  POINT GROUP:     Cs  
          CORE-CORE REPULSION     =       9759.69731 EV
          COSMO AREA              =        188.63 SQUARE ANGSTROMS
          COSMO VOLUME            =        192.34 CUBIC ANGSTROMS

          GRADIENT NORM           =          0.77290 = 0.18746 PER ATOM
          IONIZATION POTENTIAL    =         10.591927 EV
          HOMO LUMO ENERGIES (EV) =        -10.592 -1.838
          NO. OF FILLED LEVELS    =         34
          MOLECULAR WEIGHT        =        201.5659

          MOLECULAR DIMENSIONS (Angstroms)

            Atom       Atom       Distance
            H    17    O    10     7.37763
            H    15    O    12     5.62238
            H    14   Cl    13     0.03344


          SCF CALCULATIONS        =         19
 
          WALL-CLOCK TIME         =          0.641 SECONDS
          COMPUTATION TIME        =          0.967 SECONDS




  ATOM    CHEMICAL      BOND LENGTH      BOND ANGLE     TWIST ANGLE 
 NUMBER    SYMBOL       (ANGSTROMS)      (DEGREES)       (DEGREES) 
   (I)                     NA:I           NB:NA:I       NC:NB:NA:I       NA    NB    NC 
     1       C          0.00000000       0.0000000       0.0000000        0     0     0
     2       C          1.40141944  *    0.0000000       0.0000000        1     0     0
     3       C          1.40295035  *  120.0614423  *    0.0000000        2     1     0
     4       C          1.38908703  *  120.1406136  *    0.1036557  *     3     2     1
     5       C          1.39162846  *  119.8135703  *    0.0630802  *     4     3     2
     6       C          1.39763676  *  119.6759253  *   -0.2942183  *     1     2     3
     7       C          1.47669343  *  125.6661113  * -179.7047262  *     6     1     2
     8       O          1.35038149  *  114.0958089  *    0.1346940  *     7     6     1
     9       N          1.45944485  *  123.3728737  *  179.6980615  *     2     1     6
    10       O          1.22285937  *  116.7659577  *  179.5462644  *     9     2     1
    11       O          1.20697739  *  125.4337082  *  179.9937456  *     7     6     1
    12       O          1.21512532  *  119.9066083  *   -0.5143775  *     9     2     1
    13      Cl          1.68316875  *  120.4667484  *  179.6233729  *     1     2     3
    14       H          1.09966832  *  119.7236307  * -179.8714275  *     3     2     1
    15       H          1.09122524  *  120.0978703  * -179.9655642  *     4     3     2
    16       H          1.09935872  *  120.0420907  *  179.8713314  *     5     4     3
    17       H          0.99461303  *  113.0177701  *  179.3614465  *     8     7     6

                             CARTESIAN COORDINATES

   1    C        0.000000000     0.000000000     0.000000000
   2    C        1.401419439     0.000000000     0.000000000
   3    C        2.104197131     1.214237707     0.000000000
   4    C        1.413902002     2.419663228     0.002173267
   5    C        0.022278014     2.420040937     0.005681940
   6    C       -0.691961073     1.214306185     0.006235611
   7    C       -2.160577601     1.368385234     0.013209575
   8    O       -2.837496036     0.199923370     0.016119676
   9    N        2.204238779    -1.218794627     0.000164225
  10    O        3.418948409    -1.078116026    -0.008501073
  11    O       -2.753885489     2.419456186     0.018689074
  12    O        1.657906624    -2.304132600     0.009766591
  13   Cl       -0.853430908    -1.450731469    -0.009536350
  14    H        3.203844259     1.207755388    -0.002142990
  15    H        1.961231102     3.363698740     0.001604378
  16    H       -0.527834294     3.371855569     0.009547858
  17    H       -3.824443969     0.322263220     0.031013167


           Empirical Formula: C7 H4 N O4 Cl  =    17 atoms



      MOLECULAR POINT GROUP   :   Cs  


                  EIGENVALUES  
 -37.60821 -32.44835 -31.97465 -30.97997 -30.56766 -28.29585 -28.20696 -25.91762
 -24.70232 -23.83842 -21.75707 -20.96395 -19.09778 -18.55550 -17.74587 -17.64994
 -17.43485 -16.87750 -16.37954 -16.30406 -15.62969 -14.69470 -14.41665 -13.91163
 -13.56171 -12.63160 -12.50973 -11.92071 -11.73635 -11.56494 -11.46043 -11.36394
 -10.97466 -10.59193  -1.83762  -1.55619  -0.05074   0.04524   0.54143   0.56551
   1.29805   1.35660   2.32598   2.84273   2.94466   3.28894   3.46695   3.61936
   3.94673   4.14112   4.20389   4.67170   4.81025   4.89120   4.98539   5.02827
  67.79763  67.83348  68.41140  68.85232  69.06245


              NET ATOMIC CHARGES AND DIPOLE CONTRIBUTIONS

  ATOM NO.   TYPE          CHARGE      No. of ELECS.   s-Pop       p-Pop       d-Pop       
    1          C           0.104911        3.8951     1.10300     2.79209
    2          C          -0.148357        4.1484     1.07255     3.07580
    3          C          -0.016871        4.0169     1.10014     2.91673
    4          C          -0.211110        4.2111     1.08122     3.12989
    5          C          -0.006606        4.0066     1.10185     2.90475
    6          C          -0.196884        4.1969     1.06410     3.13278
    7          C           0.641901        3.3581     1.09770     2.26040
    8          O          -0.520929        6.5209     1.83721     4.68372
    9          N           0.629151        4.3708     1.44700     2.92385
   10          O          -0.405997        6.4060     1.94232     4.46368
   11          O          -0.499946        6.4999     1.87909     4.62086
   12          O          -0.357168        6.3572     1.93901     4.41815
   13         Cl           0.066731        6.9333     1.98184     4.93847     0.01296
   14          H           0.194174        0.8058     0.80583
   15          H           0.177614        0.8224     0.82239
   16          H           0.187654        0.8123     0.81235
   17          H           0.361732        0.6383     0.63827
 DIPOLE           X         Y         Z       TOTAL
 POINT-CHG.    -0.481     3.634     0.006     3.666
 HYBRID        -0.315    -0.274     0.006     0.418
 SUM           -0.796     3.360     0.012     3.453


          ATOMIC ORBITAL ELECTRON POPULATIONS

     Atom    s        px        py        pz      x^2-y^2     xz        z^2       yz        xy
    1  C   1.10300   0.94574   0.94198   0.90436
    2  C   1.07255   0.96189   0.93140   1.18252
    3  C   1.10014   1.09835   0.95468   0.86370
    4  C   1.08122   1.01058   1.06825   1.05107
    5  C   1.10185   1.00260   1.05255   0.84960
    6  C   1.06410   0.99139   0.99227   1.14912
    7  C   1.09770   0.83988   0.74883   0.67169
    8  O   1.83721   1.37857   1.44819   1.85696
    9  N   1.44700   0.98433   0.99162   0.94789
   10  O   1.94232   0.99404   1.90933   1.56030
   11  O   1.87909   1.71419   1.39809   1.50859
   12  O   1.93901   1.71993   1.16955   1.52867
   13 Cl   1.98184   1.73690   1.27759   1.92397   0.00395   0.00067   0.00259   0.00069   0.00505
   14  H   0.80583
   15  H   0.82239
   16  H   0.81235
   17  H   0.63827

 **********************
 *                    *
 * JOB ENDED NORMALLY *
 *                    *
 **********************



 TOTAL JOB TIME:             0.66 SECONDS

 == MOPAC DONE ==
