 *******************************************************************************
 ** Site#: 32691        For non-commercial use only    Version 19.179W 32BITS **
 *******************************************************************************
 ** Cite this program as: MOPAC2016, Version: 19.179W, James J. P. Stewart,   **
 ** Stewart Computational Chemistry, web: HTTP://OpenMOPAC.net. Days left: 337**
 *******************************************************************************
 **                                                                           **
 **                                MOPAC2016                                  **
 **                                                                           **
 *******************************************************************************

                              PM7 CALCULATION RESULTS

 *******************************************************************************
 *  CALCULATION DONE:                                Fri Jul 26 14:21:33 2019  *
 *  T=         - A TIME OF 172800.0 SECONDS REQUESTED
 *  DUMP=N     - RESTART FILE WRITTEN EVERY  7200.000 SECONDS
 *******************************************************************************

 2-fluoro-4-nitrophenol (2).mop

  ATOM    CHEMICAL      BOND LENGTH      BOND ANGLE     TWIST ANGLE 
 NUMBER    SYMBOL       (ANGSTROMS)      (DEGREES)       (DEGREES) 
   (I)                     NA:I           NB:NA:I       NC:NB:NA:I       NA    NB    NC 
     1       C          0.00000000       0.0000000       0.0000000        0     0     0
     2       C          1.34182100  *    0.0000000       0.0000000        1     0     0
     3       C          1.34306500  *  117.8412790  *    0.0000000        2     1     0
     4       C          1.34100000  *  121.1439940  *   -0.0830950  *     3     2     1
     5       C          1.34810900  *  121.2710360  *    0.0191520  *     4     3     2
     6       C          1.34145400  *  121.1305240  *    0.0612530  *     1     2     3
     7       N          1.25692100  *  121.3414550  * -179.9223620  *     5     4     3
     8       O          1.31250700  *  122.7562280  * -179.9954620  *     7     5     4
     9       O          1.31239800  *  122.5135110  *    0.1035490  *     7     5     4
    10       O          1.36050300  *  121.8403400  * -179.8709190  *     2     1     6
    11       F          1.32299800  *  117.3260010  *  179.9694440  *     3     2     1
    12       H          1.10317800  *  119.1369860  *  179.9974920  *     1     2     3
    13       H          1.10286200  *  117.0105820  * -179.9440060  *     4     3     2
    14       H          1.10344600  *  117.1466330  *  179.9512730  *     6     1     2
    15       H          0.97155700  *  108.7941470  * -179.7251400  *    10     2     1
 


          CARTESIAN COORDINATES 

    NO.       ATOM           X           Y           Z

     1         C          0.0000      0.0000      0.0000
     2         C          1.3418      0.0000      0.0000
     3         C          1.9691      1.1876      0.0000
     4         C          1.2781      2.3369     -0.0017
     5         C         -0.0700      2.3429     -0.0030
     6         C         -0.6935      1.1483     -0.0012
     7         N         -0.7190      3.4193     -0.0060
     8         O         -2.0309      3.4576     -0.0073
     9         O         -0.1354      4.5948     -0.0100
    10         O          2.0596     -1.1558     -0.0014
    11         F          3.2920      1.1757      0.0006
    12         H         -0.5371     -0.9636     -0.0000
    13         H          1.8621      3.2724     -0.0025
    14         H         -1.7943      1.0716     -0.0020
    15         H          3.0060     -0.9365      0.0033

 General Reference for PM7:
 "Optimization of Parameters for Semiempirical Methods VI: More Modifications to the 
 NDDO Approximations and Re-optimization of Parameters", J. J. P. Stewart, J. Mol. Mod., 1:32, 19 (2013)
 http://www.springerlink.com/openurl.asp?genre=article&id=doi:10.1007/s00894-012-1667-x

           Empirical Formula: C6 H4 N O3 F  =    15 atoms



      MOLECULAR POINT GROUP   :   Cs  


      RHF CALCULATION, NO. OF DOUBLY OCCUPIED LEVELS = 29


          Geometry optimization using EF

          DIAGONAL MATRIX USED AS START HESSIAN

 CYCLE:     1 TIME:   0.094 TIME LEFT:  2.00D  GRAD.:   678.025 HEAT: -16.53416
 CYCLE:     2 TIME:   0.062 TIME LEFT:  2.00D  GRAD.:   590.538 HEAT: -18.96936
 CYCLE:     3 TIME:   0.031 TIME LEFT:  2.00D  GRAD.:   327.546 HEAT: -55.28142
 CYCLE:     4 TIME:   0.031 TIME LEFT:  2.00D  GRAD.:   358.455 HEAT: -60.04546
 CYCLE:     5 TIME:   0.000 TIME LEFT:  2.00D  GRAD.:    83.895 HEAT: -65.87463
 CYCLE:     6 TIME:   0.016 TIME LEFT:  2.00D  GRAD.:    33.055 HEAT: -68.79352
 CYCLE:     7 TIME:   0.016 TIME LEFT:  2.00D  GRAD.:    59.384 HEAT: -69.32817
 CYCLE:     8 TIME:   0.016 TIME LEFT:  2.00D  GRAD.:    31.028 HEAT: -69.91954
 CYCLE:     9 TIME:   0.016 TIME LEFT:  2.00D  GRAD.:     8.439 HEAT: -70.25633
 CYCLE:    10 TIME:   0.000 TIME LEFT:  2.00D  GRAD.:     9.332 HEAT: -70.29508
 CYCLE:    11 TIME:   0.031 TIME LEFT:  2.00D  GRAD.:    11.081 HEAT: -70.32829
 CYCLE:    12 TIME:   0.016 TIME LEFT:  2.00D  GRAD.:     2.892 HEAT: -70.37092
 CYCLE:    13 TIME:   0.016 TIME LEFT:  2.00D  GRAD.:     2.141 HEAT: -70.37303
 CYCLE:    14 TIME:   0.016 TIME LEFT:  2.00D  GRAD.:     0.588 HEAT: -70.37457

     GRADIENT =  0.58849 IS LESS THAN CUTOFF =  1.00000



 -------------------------------------------------------------------------------

 2-fluoro-4-nitrophenol (2).mop



     GEOMETRY OPTIMISED USING EIGENVECTOR FOLLOWING (EF).     
     SCF FIELD WAS ACHIEVED                                   


                              PM7 CALCULATION
                                                       MOPAC2016 (Version: 19.179W)
                                                       Fri Jul 26 14:21:33 2019
                                                       No. of days remaining = 337




          FINAL HEAT OF FORMATION =        -70.37457 KCAL/MOL =    -294.44719 KJ/MOL


          TOTAL ENERGY            =      -2325.53212 EV
          ELECTRONIC ENERGY       =      -9779.32371 EV  POINT GROUP:     Cs  
          CORE-CORE REPULSION     =       7453.79159 EV
          COSMO AREA              =        163.37 SQUARE ANGSTROMS
          COSMO VOLUME            =        158.55 CUBIC ANGSTROMS

          GRADIENT NORM           =          0.58849 = 0.15195 PER ATOM
          IONIZATION POTENTIAL    =         10.297767 EV
          HOMO LUMO ENERGIES (EV) =        -10.298 -1.533
          NO. OF FILLED LEVELS    =         29
          MOLECULAR WEIGHT        =        157.1009

          MOLECULAR DIMENSIONS (Angstroms)

            Atom       Atom       Distance
            H    15    O     8     6.85876
            H    12    H    13     4.85421
            O     8    O    10     0.00267


          SCF CALCULATIONS        =         18
 
          WALL-CLOCK TIME         =          0.375 SECONDS
          COMPUTATION TIME        =          0.593 SECONDS




  ATOM    CHEMICAL      BOND LENGTH      BOND ANGLE     TWIST ANGLE 
 NUMBER    SYMBOL       (ANGSTROMS)      (DEGREES)       (DEGREES) 
   (I)                     NA:I           NB:NA:I       NC:NB:NA:I       NA    NB    NC 
     1       C          0.00000000       0.0000000       0.0000000        0     0     0
     2       C          1.40208531  *    0.0000000       0.0000000        1     0     0
     3       C          1.40635735  *  119.8607747  *    0.0000000        2     1     0
     4       C          1.38674150  *  121.3459694  *   -0.0524792  *     3     2     1
     5       C          1.39933579  *  117.8481415  *    0.0014548  *     4     3     2
     6       C          1.38648900  *  119.4368210  *    0.0542046  *     1     2     3
     7       N          1.45232579  *  119.0457009  * -179.9823950  *     5     4     3
     8       O          1.22041959  *  118.0889343  * -179.9427514  *     7     5     4
     9       O          1.22012863  *  118.1457627  *    0.0570716  *     7     5     4
    10       O          1.34438592  *  115.5444890  * -179.9342864  *     2     1     6
    11       F          1.32337411  *  118.9661803  *  179.9598033  *     3     2     1
    12       H          1.09115104  *  119.0947663  * -179.9579863  *     1     2     3
    13       H          1.09813858  *  121.4349514  * -179.9759310  *     4     3     2
    14       H          1.09749976  *  120.3822709  *  179.9756599  *     6     1     2
    15       H          0.99291834  *  113.9566590  * -179.7999494  *    10     2     1

                             CARTESIAN COORDINATES

   1    C        0.000000000     0.000000000     0.000000000
   2    C        1.402085306     0.000000000     0.000000000
   3    C        2.102302385     1.219646278     0.000000000
   4    C        1.434378044     2.434935500    -0.001084774
   5    C        0.035233043     2.411853764    -0.002154222
   6    C       -0.681408784     1.207490166    -0.001142345
   7    N       -0.690727464     3.669720680    -0.003693867
   8    O       -1.910474778     3.629218309    -0.003534596
   9    O       -0.046625529     4.705985455    -0.005068556
  10    O        1.981800386    -1.212973151    -0.000243650
  11    F        3.425514938     1.198984602     0.000812291
  12    H       -0.530578261    -0.953465679     0.000699154
  13    H        1.979655363     3.388130564    -0.001479941
  14    H       -1.778759055     1.225599076    -0.001561684
  15    H        2.974332482    -1.185463087     0.002930029


           Empirical Formula: C6 H4 N O3 F  =    15 atoms



      MOLECULAR POINT GROUP   :   Cs  


                  EIGENVALUES  
 -42.10950 -37.34489 -32.13296 -31.29707 -30.74475 -27.56688 -27.01663 -24.71340
 -22.69545 -21.75779 -19.91512 -19.14733 -18.18009 -17.77903 -17.44247 -17.32863
 -17.08958 -16.12558 -15.81845 -15.37126 -15.20517 -14.38050 -13.42897 -13.20739
 -11.43478 -11.38485 -11.24585 -11.08227 -10.29777  -1.53295  -1.01638   0.23019
   0.57340   1.18392   1.36409   2.10982   2.75534   3.23197   3.26004   3.37521
   3.71235   4.17604   4.37060   4.58656   4.83592   4.94497   5.15412   5.29556


              NET ATOMIC CHARGES AND DIPOLE CONTRIBUTIONS

  ATOM NO.   TYPE          CHARGE      No. of ELECS.   s-Pop       p-Pop       
    1          C          -0.241042        4.2410     1.07624     3.16480
    2          C           0.280367        3.7196     1.08414     2.63549
    3          C           0.002580        3.9974     1.08527     2.91215
    4          C          -0.074982        4.0750     1.09095     2.98403
    5          C          -0.129175        4.1292     1.06875     3.06043
    6          C          -0.037526        4.0375     1.09195     2.94558
    7          N           0.635277        4.3647     1.44701     2.91771
    8          O          -0.400143        6.4001     1.94171     4.45844
    9          O          -0.397350        6.3973     1.94163     4.45572
   10          O          -0.431711        6.4317     1.83490     4.59682
   11          F          -0.142517        7.1425     1.96645     5.17607
   12          H           0.192136        0.8079     0.80786
   13          H           0.206571        0.7934     0.79343
   14          H           0.192172        0.8078     0.80783
   15          H           0.345342        0.6547     0.65466
 DIPOLE           X         Y         Z       TOTAL
 POINT-CHG.     1.464    -3.994     0.010     4.254
 HYBRID         0.776     0.027     0.001     0.776
 SUM            2.240    -3.967     0.010     4.556


          ATOMIC ORBITAL ELECTRON POPULATIONS

     Atom    s        px        py        pz   
    1  C   1.07624   0.98784   1.08073   1.09623
    2  C   1.08414   0.94039   0.81308   0.88203
    3  C   1.08527   0.81403   0.97545   1.12267
    4  C   1.09095   0.99156   1.06534   0.92713
    5  C   1.06875   0.96537   0.91315   1.18191
    6  C   1.09195   1.09736   0.95090   0.89732
    7  N   1.44701   0.98034   0.99666   0.94071
    8  O   1.94171   0.98415   1.92254   1.55175
    9  O   1.94163   1.64828   1.25764   1.54979
   10  O   1.83490   1.37603   1.34224   1.87855
   11  F   1.96645   1.21941   1.98475   1.97191
   12  H   0.80786
   13  H   0.79343
   14  H   0.80783
   15  H   0.65466

 **********************
 *                    *
 * JOB ENDED NORMALLY *
 *                    *
 **********************



 TOTAL JOB TIME:             0.39 SECONDS

 == MOPAC DONE ==
