 *******************************************************************************
 ** Site#: 32691        For non-commercial use only    Version 19.179W 32BITS **
 *******************************************************************************
 ** Cite this program as: MOPAC2016, Version: 19.179W, James J. P. Stewart,   **
 ** Stewart Computational Chemistry, web: HTTP://OpenMOPAC.net. Days left: 339**
 *******************************************************************************
 **                                                                           **
 **                                MOPAC2016                                  **
 **                                                                           **
 *******************************************************************************

                              PM7 CALCULATION RESULTS

 *******************************************************************************
 *  CALCULATION DONE:                                Wed Jul 24 15:36:24 2019  *
 *  T=         - A TIME OF 172800.0 SECONDS REQUESTED
 *  DUMP=N     - RESTART FILE WRITTEN EVERY  7200.000 SECONDS
 *******************************************************************************

 2-fluoro4-nitrophenol.mop

  ATOM    CHEMICAL      BOND LENGTH      BOND ANGLE     TWIST ANGLE 
 NUMBER    SYMBOL       (ANGSTROMS)      (DEGREES)       (DEGREES) 
   (I)                     NA:I           NB:NA:I       NC:NB:NA:I       NA    NB    NC 
     1       C          0.00000000       0.0000000       0.0000000        0     0     0
     2       C          1.34515000  *    0.0000000       0.0000000        1     0     0
     3       C          1.34203700  *  117.8420210  *    0.0000000        2     1     0
     4       C          1.34072600  *  121.3599360  *   -0.0771840  *     3     2     1
     5       C          1.34702000  *  121.1726980  *    0.0099440  *     4     3     2
     6       C          1.34197700  *  120.7863970  *    0.0601010  *     1     2     3
     7       N          1.25686300  *  121.1385730  * -179.9180710  *     5     4     3
     8       O          1.31182700  *  122.4474330  * -179.9984900  *     7     5     4
     9       O          1.31290700  *  122.8284510  *    0.1025940  *     7     5     4
    10       O          1.36094500  *  121.8613300  * -179.8520600  *     2     1     6
    11       F          1.32425600  *  118.4004110  * -179.9479280  *     1     2     3
    12       H          1.10334100  *  119.1551650  * -179.9908070  *     3     2     1
    13       H          1.10343500  *  117.1920890  * -179.9369220  *     4     3     2
    14       H          1.10303900  *  116.9512580  *  179.9688900  *     6     1     2
    15       H          0.97092400  *  109.3000270  * -179.6533470  *    10     2     1
 


          CARTESIAN COORDINATES 

    NO.       ATOM           X           Y           Z

     1         C          0.0000      0.0000      0.0000
     2         C          1.3452      0.0000      0.0000
     3         C          1.9719      1.1867      0.0000
     4         C          1.2855      2.3383     -0.0015
     5         C         -0.0615      2.3471     -0.0030
     6         C         -0.6869      1.1529     -0.0012
     7         N         -0.7044      3.4271     -0.0059
     8         O         -2.0157      3.4657     -0.0073
     9         O         -0.1205      4.6030     -0.0098
    10         O          2.0635     -1.1559     -0.0018
    11         F         -0.6299     -1.1649      0.0011
    12         H          3.0750      1.2120     -0.0002
    13         H          1.8704      3.2740     -0.0025
    14         H         -1.7874      1.0791     -0.0017
    15         H          3.0112     -0.9447      0.0041

 General Reference for PM7:
 "Optimization of Parameters for Semiempirical Methods VI: More Modifications to the 
 NDDO Approximations and Re-optimization of Parameters", J. J. P. Stewart, J. Mol. Mod., 1:32, 19 (2013)
 http://www.springerlink.com/openurl.asp?genre=article&id=doi:10.1007/s00894-012-1667-x

           Empirical Formula: C6 H4 N O3 F  =    15 atoms



      MOLECULAR POINT GROUP   :   Cs  


      RHF CALCULATION, NO. OF DOUBLY OCCUPIED LEVELS = 29


          Geometry optimization using EF

          DIAGONAL MATRIX USED AS START HESSIAN

 CYCLE:     1 TIME:   0.016 TIME LEFT:  2.00D  GRAD.:   663.789 HEAT: -17.57493
 CYCLE:     2 TIME:   0.031 TIME LEFT:  2.00D  GRAD.:   598.185 HEAT: -19.14826
 CYCLE:     3 TIME:   0.016 TIME LEFT:  2.00D  GRAD.:   324.795 HEAT: -55.73111
 CYCLE:     4 TIME:   0.031 TIME LEFT:  2.00D  GRAD.:   801.041 HEAT: -56.13901
 CYCLE:     5 TIME:   0.016 TIME LEFT:  2.00D  GRAD.:   162.658 HEAT: -67.64738
 CYCLE:     6 TIME:   0.031 TIME LEFT:  2.00D  GRAD.:   116.225 HEAT: -67.93969
 CYCLE:     7 TIME:   0.031 TIME LEFT:  2.00D  GRAD.:    42.304 HEAT: -69.33651
 CYCLE:     8 TIME:   0.000 TIME LEFT:  2.00D  GRAD.:    44.835 HEAT: -69.51772
 CYCLE:     9 TIME:   0.031 TIME LEFT:  2.00D  GRAD.:    11.652 HEAT: -69.86280
 CYCLE:    10 TIME:   0.031 TIME LEFT:  2.00D  GRAD.:    12.543 HEAT: -69.89219
 CYCLE:    11 TIME:   0.031 TIME LEFT:  2.00D  GRAD.:     4.599 HEAT: -69.96795
 CYCLE:    12 TIME:   0.016 TIME LEFT:  2.00D  GRAD.:     2.657 HEAT: -69.98947
 CYCLE:    13 TIME:   0.016 TIME LEFT:  2.00D  GRAD.:     1.454 HEAT: -69.99380
 CYCLE:    14 TIME:   0.016 TIME LEFT:  2.00D  GRAD.:     0.575 HEAT: -69.99509

     GRADIENT =  0.57460 IS LESS THAN CUTOFF =  1.00000



 -------------------------------------------------------------------------------

 2-fluoro4-nitrophenol.mop



     GEOMETRY OPTIMISED USING EIGENVECTOR FOLLOWING (EF).     
     SCF FIELD WAS ACHIEVED                                   


                              PM7 CALCULATION
                                                       MOPAC2016 (Version: 19.179W)
                                                       Wed Jul 24 15:36:24 2019
                                                       No. of days remaining = 339




          FINAL HEAT OF FORMATION =        -69.99509 KCAL/MOL =    -292.85945 KJ/MOL


          TOTAL ENERGY            =      -2325.51520 EV
          ELECTRONIC ENERGY       =      -9782.73335 EV  POINT GROUP:     Cs  
          CORE-CORE REPULSION     =       7457.21815 EV
          COSMO AREA              =        163.87 SQUARE ANGSTROMS
          COSMO VOLUME            =        158.60 CUBIC ANGSTROMS

          GRADIENT NORM           =          0.57460 = 0.14836 PER ATOM
          IONIZATION POTENTIAL    =         10.247867 EV
          HOMO LUMO ENERGIES (EV) =        -10.248 -1.526
          NO. OF FILLED LEVELS    =         29
          MOLECULAR WEIGHT        =        157.1009

          MOLECULAR DIMENSIONS (Angstroms)

            Atom       Atom       Distance
            H    15    O     8     6.84880
            F    11    H    13     5.03604
            H    15    O    10     0.00330


          SCF CALCULATIONS        =         18
 
          WALL-CLOCK TIME         =          0.375 SECONDS
          COMPUTATION TIME        =          0.577 SECONDS




  ATOM    CHEMICAL      BOND LENGTH      BOND ANGLE     TWIST ANGLE 
 NUMBER    SYMBOL       (ANGSTROMS)      (DEGREES)       (DEGREES) 
   (I)                     NA:I           NB:NA:I       NC:NB:NA:I       NA    NB    NC 
     1       C          0.00000000       0.0000000       0.0000000        0     0     0
     2       C          1.41207577  *    0.0000000       0.0000000        1     0     0
     3       C          1.39556923  *  120.3129476  *    0.0000000        2     1     0
     4       C          1.39195510  *  119.1719142  *   -0.0247575  *     3     2     1
     5       C          1.39730338  *  119.7897686  *    0.0163250  *     4     3     2
     6       C          1.38294509  *  121.0565862  *    0.0371733  *     1     2     3
     7       N          1.45241692  *  119.2127136  * -179.9843515  *     5     4     3
     8       O          1.21976025  *  118.2411025  * -179.9573158  *     7     5     4
     9       O          1.22083913  *  118.0116417  *    0.0415155  *     7     5     4
    10       O          1.34550732  *  115.3106354  * -179.9565737  *     2     1     6
    11       F          1.31994344  *  118.2578706  * -179.9767727  *     1     2     3
    12       H          1.08748713  *  120.5550308  *  179.9771756  *     3     2     1
    13       H          1.09727435  *  120.2605949  * -179.9834766  *     4     3     2
    14       H          1.09781103  *  121.6840996  *  179.9669935  *     6     1     2
    15       H          0.99498366  *  112.2618126  * -179.7714039  *    10     2     1

                             CARTESIAN COORDINATES

   1    C        0.000000000     0.000000000     0.000000000
   2    C        1.412075766     0.000000000     0.000000000
   3    C        2.116451262     1.204769122     0.000000000
   4    C        1.409663890     2.403931469    -0.000525175
   5    C        0.012472494     2.386242001    -0.000696987
   6    C       -0.713439766     1.184711036    -0.000768636
   7    N       -0.712376119     3.644855758    -0.001592261
   8    O       -1.931601252     3.608735001    -0.000928507
   9    O       -0.064521760     4.679617124    -0.002946314
  10    O        1.987314690    -1.216342927    -0.000132746
  11    F       -0.624914906    -1.162640026     0.000471325
  12    H        3.203928625     1.209363941     0.000373057
  13    H        1.945385479     3.361539579    -0.000807507
  14    H       -1.811184822     1.196733942    -0.001314596
  15    H        2.980883403    -1.163426377     0.003546865


           Empirical Formula: C6 H4 N O3 F  =    15 atoms



      MOLECULAR POINT GROUP   :   Cs  


                  EIGENVALUES  
 -41.83215 -37.33726 -32.17779 -31.30336 -30.73639 -27.51808 -27.04122 -24.70995
 -22.73457 -21.67871 -19.72401 -19.03433 -18.28941 -17.56944 -17.28610 -17.20552
 -16.86464 -16.47759 -15.89272 -15.30219 -14.85259 -14.30373 -13.40448 -13.30355
 -11.42841 -11.37757 -11.23945 -11.09564 -10.24787  -1.52642  -1.00768   0.23720
   0.58035   1.22694   1.36604   2.34394   2.77738   3.23982   3.32230   3.34121
   3.73445   4.16047   4.27961   4.62865   4.82462   4.88313   5.04510   5.17006


              NET ATOMIC CHARGES AND DIPOLE CONTRIBUTIONS

  ATOM NO.   TYPE          CHARGE      No. of ELECS.   s-Pop       p-Pop       
    1          C           0.065735        3.9343     1.08286     2.85140
    2          C           0.270092        3.7299     1.08497     2.64493
    3          C          -0.303388        4.3034     1.07559     3.22780
    4          C          -0.026071        4.0261     1.09125     2.93482
    5          C          -0.127410        4.1274     1.06871     3.05870
    6          C          -0.092751        4.0928     1.09079     3.00196
    7          N           0.634996        4.3650     1.44715     2.91785
    8          O          -0.394448        6.3944     1.94156     4.45289
    9          O          -0.403540        6.4035     1.94177     4.46177
   10          O          -0.413007        6.4130     1.84033     4.57268
   11          F          -0.117152        7.1172     1.96663     5.15052
   12          H           0.176545        0.8235     0.82346
   13          H           0.190157        0.8098     0.80984
   14          H           0.208067        0.7919     0.79193
   15          H           0.332175        0.6678     0.66783
 DIPOLE           X         Y         Z       TOTAL
 POINT-CHG.     4.342    -2.333     0.007     4.929
 HYBRID         0.141    -0.325     0.000     0.354
 SUM            4.483    -2.658     0.008     5.212


          ATOMIC ORBITAL ELECTRON POPULATIONS

     Atom    s        px        py        pz   
    1  C   1.08286   0.91524   0.86232   1.07385
    2  C   1.08497   0.93034   0.83155   0.88304
    3  C   1.07559   1.10167   0.98296   1.14317
    4  C   1.09125   0.98005   1.06422   0.89055
    5  C   1.06871   0.97142   0.90613   1.18114
    6  C   1.09079   1.10698   0.95306   0.94191
    7  N   1.44715   0.98063   0.99655   0.94067
    8  O   1.94156   0.98244   1.92236   1.54809
    9  O   1.94177   1.64650   1.26169   1.55358
   10  O   1.84033   1.36212   1.33363   1.87693
   11  F   1.96663   1.80875   1.37471   1.96706
   12  H   0.82346
   13  H   0.80984
   14  H   0.79193
   15  H   0.66783

 **********************
 *                    *
 * JOB ENDED NORMALLY *
 *                    *
 **********************



 TOTAL JOB TIME:             0.38 SECONDS

 == MOPAC DONE ==
