 *******************************************************************************
 ** Site#: 32691        For non-commercial use only    Version 19.179W 32BITS **
 *******************************************************************************
 ** Cite this program as: MOPAC2016, Version: 19.179W, James J. P. Stewart,   **
 ** Stewart Computational Chemistry, web: HTTP://OpenMOPAC.net. Days left: 337**
 *******************************************************************************
 **                                                                           **
 **                                MOPAC2016                                  **
 **                                                                           **
 *******************************************************************************

                              PM7 CALCULATION RESULTS

 *******************************************************************************
 *  CALCULATION DONE:                                Fri Jul 26 15:17:17 2019  *
 *  T=         - A TIME OF 172800.0 SECONDS REQUESTED
 *  DUMP=N     - RESTART FILE WRITTEN EVERY  7200.000 SECONDS
 *******************************************************************************

 2-hydroxy-5-nitrobenzoic acid4.mop

  ATOM    CHEMICAL      BOND LENGTH      BOND ANGLE     TWIST ANGLE 
 NUMBER    SYMBOL       (ANGSTROMS)      (DEGREES)       (DEGREES) 
   (I)                     NA:I           NB:NA:I       NC:NB:NA:I       NA    NB    NC 
     1       C          0.00000000       0.0000000       0.0000000        0     0     0
     2       C          1.33915000  *    0.0000000       0.0000000        1     0     0
     3       C          1.34485000  *  120.6246740  *    0.0000000        2     1     0
     4       C          1.34764100  *  116.8535800  *    0.2564160  *     3     2     1
     5       C          1.34903400  *  123.1233500  *   -0.3375950  *     4     3     2
     6       C          1.34383500  *  122.3924610  *    0.0090010  *     1     2     3
     7       O          1.36165700  *  117.6318040  *  179.4322210  *     6     1     2
     8       C          1.36765100  *  118.3081170  * -179.6562050  *     5     4     3
     9       O          1.21218400  *  124.5638900  *  179.7636690  *     8     5     4
    10       O          1.35861300  *  122.2522210  *   -0.0501070  *     8     5     4
    11       N          1.25792500  *  121.1920060  * -179.6172610  *     3     2     1
    12       O          1.31359100  *  123.3568800  *  179.6496110  *    11     3     2
    13       O          1.31252100  *  122.4014630  *    0.4873010  *    11     3     2
    14       H          1.10392100  *  118.6813100  *  179.7037940  *     1     2     3
    15       H          1.10330300  *  117.4883850  * -179.7531570  *     2     1     6
    16       H          1.10243500  *  117.7786380  *  179.9492110  *     4     3     2
    17       H          0.97088700  *  109.0872360  *    0.4491350  *     7     6     1
    18       H          0.97064800  *  107.9904430  *  178.6625550  *    10     8     5
 


          CARTESIAN COORDINATES 

    NO.       ATOM           X           Y           Z

     1         C          0.0000      0.0000      0.0000
     2         C          1.3392      0.0000      0.0000
     3         C          2.0242      1.1573      0.0000
     4         C          1.2997      2.2936      0.0054
     5         C         -0.0492      2.3078      0.0040
     6         C         -0.7199      1.1347     -0.0002
     7         O         -2.0768      1.0218     -0.0121
     8         C         -0.6851      3.5186      0.0026
     9         O         -1.8886      3.6634     -0.0029
    10         O         -0.0049      4.6947      0.0037
    11         N          3.2821      1.1697     -0.0072
    12         O          3.9934      2.2740     -0.0142
    13         O          3.9962      0.0687     -0.0245
    14         H         -0.5298     -0.9685     -0.0050
    15         H          1.8484     -0.9787     -0.0041
    16         H          1.8459      3.2512      0.0063
    17         H         -2.3171      0.0811     -0.0118
    18         H         -0.6537      5.4163     -0.0192

 General Reference for PM7:
 "Optimization of Parameters for Semiempirical Methods VI: More Modifications to the 
 NDDO Approximations and Re-optimization of Parameters", J. J. P. Stewart, J. Mol. Mod., 1:32, 19 (2013)
 http://www.springerlink.com/openurl.asp?genre=article&id=doi:10.1007/s00894-012-1667-x

           Empirical Formula: C7 H5 N O5  =    18 atoms



      MOLECULAR POINT GROUP   :   Cs  


      RHF CALCULATION, NO. OF DOUBLY OCCUPIED LEVELS = 34


          Geometry optimization using EF

          DIAGONAL MATRIX USED AS START HESSIAN

 CYCLE:     1 TIME:   0.047 TIME LEFT:  2.00D  GRAD.:   617.240 HEAT: -49.13660
 CYCLE:     2 TIME:   0.047 TIME LEFT:  2.00D  GRAD.:   609.955 HEAT: -57.48795
 CYCLE:     3 TIME:   0.031 TIME LEFT:  2.00D  GRAD.:   258.752 HEAT: -94.91477
 CYCLE:     4 TIME:   0.047 TIME LEFT:  2.00D  GRAD.:   589.145 HEAT: -102.7799
 CYCLE:     5 TIME:   0.016 TIME LEFT:  2.00D  GRAD.:   317.501 HEAT: -106.3492
 CYCLE:     6 TIME:   0.031 TIME LEFT:  2.00D  GRAD.:   112.445 HEAT: -110.3876
 CYCLE:     7 TIME:   0.016 TIME LEFT:  2.00D  GRAD.:    36.949 HEAT: -112.1056
 CYCLE:     8 TIME:   0.031 TIME LEFT:  2.00D  GRAD.:    29.314 HEAT: -112.3425
 CYCLE:     9 TIME:   0.016 TIME LEFT:  2.00D  GRAD.:    25.796 HEAT: -112.5328
 CYCLE:    10 TIME:   0.016 TIME LEFT:  2.00D  GRAD.:    19.138 HEAT: -112.7380
 CYCLE:    11 TIME:   0.031 TIME LEFT:  2.00D  GRAD.:    13.476 HEAT: -112.8026
 CYCLE:    12 TIME:   0.016 TIME LEFT:  2.00D  GRAD.:     2.548 HEAT: -112.8554
 CYCLE:    13 TIME:   0.000 TIME LEFT:  2.00D  GRAD.:     1.103 HEAT: -112.8586
 CYCLE:    14 TIME:   0.016 TIME LEFT:  2.00D  GRAD.:     0.824 HEAT: -112.8597

     GRADIENT =  0.82440 IS LESS THAN CUTOFF =  1.00000



 -------------------------------------------------------------------------------

 2-hydroxy-5-nitrobenzoic acid4.mop



     GEOMETRY OPTIMISED USING EIGENVECTOR FOLLOWING (EF).     
     SCF FIELD WAS ACHIEVED                                   


                              PM7 CALCULATION
                                                       MOPAC2016 (Version: 19.179W)
                                                       Fri Jul 26 15:17:18 2019
                                                       No. of days remaining = 337




          FINAL HEAT OF FORMATION =       -112.85971 KCAL/MOL =    -472.20502 KJ/MOL


          TOTAL ENERGY            =      -2587.27665 EV
          ELECTRONIC ENERGY       =     -12372.41139 EV  POINT GROUP:     Cs  
          CORE-CORE REPULSION     =       9785.13475 EV
          COSMO AREA              =        186.40 SQUARE ANGSTROMS
          COSMO VOLUME            =        185.40 CUBIC ANGSTROMS

          GRADIENT NORM           =          0.82440 = 0.19431 PER ATOM
          IONIZATION POTENTIAL    =         10.465361 EV
          HOMO LUMO ENERGIES (EV) =        -10.465 -1.540
          NO. OF FILLED LEVELS    =         34
          MOLECULAR WEIGHT        =        183.1202

          MOLECULAR DIMENSIONS (Angstroms)

            Atom       Atom       Distance
            O    13    O     9     7.10851
            H    14    H    18     5.69401
            H    16    O     7     0.01108


          SCF CALCULATIONS        =         17
 
          WALL-CLOCK TIME         =          0.453 SECONDS
          COMPUTATION TIME        =          0.577 SECONDS




  ATOM    CHEMICAL      BOND LENGTH      BOND ANGLE     TWIST ANGLE 
 NUMBER    SYMBOL       (ANGSTROMS)      (DEGREES)       (DEGREES) 
   (I)                     NA:I           NB:NA:I       NC:NB:NA:I       NA    NB    NC 
     1       C          0.00000000       0.0000000       0.0000000        0     0     0
     2       C          1.38260066  *    0.0000000       0.0000000        1     0     0
     3       C          1.40519067  *  119.5361953  *    0.0000000        2     1     0
     4       C          1.39751040  *  121.4654083  *    0.1416657  *     3     2     1
     5       C          1.39437126  *  119.5626490  *   -0.1376272  *     4     3     2
     6       C          1.40642525  *  119.1254039  *   -0.0525534  *     1     2     3
     7       O          1.33865855  *  122.1695180  *  179.8764076  *     6     1     2
     8       C          1.46684542  *  120.9640778  * -179.9568722  *     5     4     3
     9       O          1.20124330  *  129.8362764  *  179.9218021  *     8     5     4
    10       O          1.36575916  *  110.1707618  *   -0.0411211  *     8     5     4
    11       N          1.44867080  *  119.0760864  * -179.8989012  *     3     2     1
    12       O          1.21971158  *  118.2876172  * -179.8888925  *    11     3     2
    13       O          1.22137922  *  117.9785975  *    0.1265147  *    11     3     2
    14       H          1.08688701  *  120.5921023  *  179.9488064  *     1     2     3
    15       H          1.09827426  *  120.7466476  * -179.9731475  *     2     1     6
    16       H          1.10388025  *  120.1377492  *  179.8812533  *     4     3     2
    17       H          0.99700749  *  112.9549343  *    0.3104135  *     7     6     1
    18       H          0.98944783  *  112.9922162  *  179.5375693  *    10     8     5

                             CARTESIAN COORDINATES

   1    C        0.000000000     0.000000000     0.000000000
   2    C        1.382600656     0.000000000     0.000000000
   3    C        2.075322122     1.222578333     0.000000000
   4    C        1.397833016     2.444885634     0.002947291
   5    C        0.003529406     2.458620681     0.003050160
   6    C       -0.684539164     1.228591412     0.001126901
   7    O       -2.021306488     1.299684132    -0.001252186
   8    C       -0.738736813     3.723797317     0.005156103
   9    O       -1.923723784     3.920750596     0.004286747
  10    O        0.128696323     4.778714914     0.007746363
  11    N        3.523944494     1.210946000    -0.002234045
  12    O        4.110572828     2.280319210    -0.000121641
  13    O        4.088259193     0.127756926    -0.006424318
  14    H       -0.553141540    -0.935605207    -0.000835961
  15    H        1.944085463    -0.943895886    -0.001308140
  16    H        1.964125794     3.392440608     0.004862597
  17    H       -2.458357918     0.403579068     0.001135274
  18    H       -0.329350618     5.655735822     0.001886612


           Empirical Formula: C7 H5 N O5  =    18 atoms



      MOLECULAR POINT GROUP   :   Cs  


                  EIGENVALUES  
 -37.34818 -32.48479 -31.75944 -31.44775 -30.74601 -30.10299 -27.88427 -27.44939
 -24.74745 -23.86692 -22.56184 -20.72232 -19.50563 -18.76106 -18.30932 -17.47570
 -17.45382 -16.79480 -16.63586 -16.25156 -15.92402 -15.42863 -15.18087 -14.41743
 -13.91197 -13.47613 -13.32077 -12.36369 -11.44622 -11.43986 -11.39333 -11.34186
 -11.23528 -10.46536  -1.54003  -1.31837   0.06418   0.57816   0.80674   1.17173
   1.52347   1.70258   2.46443   2.90333   3.15805   3.23089   3.61345   3.64641
   4.09448   4.27654   4.51451   4.55543   4.74799   4.86535   4.97525   5.10859
   5.28059


              NET ATOMIC CHARGES AND DIPOLE CONTRIBUTIONS

  ATOM NO.   TYPE          CHARGE      No. of ELECS.   s-Pop       p-Pop       
    1          C          -0.358161        4.3582     1.07490     3.28326
    2          C           0.040416        3.9596     1.09698     2.86260
    3          C          -0.199271        4.1993     1.06694     3.13233
    4          C           0.066026        3.9340     1.10246     2.83151
    5          C          -0.273342        4.2733     1.05454     3.21880
    6          C           0.384348        3.6157     1.09060     2.52506
    7          O          -0.390185        6.3902     1.83967     4.55051
    8          C           0.655799        3.3442     1.09286     2.25134
    9          O          -0.463285        6.4633     1.87762     4.58566
   10          O          -0.568563        6.5686     1.84064     4.72793
   11          N           0.643079        4.3569     1.44466     2.91226
   12          O          -0.395400        6.3954     1.94158     4.45382
   13          O          -0.411422        6.4114     1.94178     4.46964
   14          H           0.178034        0.8220     0.82197
   15          H           0.186946        0.8131     0.81305
   16          H           0.211438        0.7886     0.78856
   17          H           0.332057        0.6679     0.66794
   18          H           0.361485        0.6385     0.63851
 DIPOLE           X         Y         Z       TOTAL
 POINT-CHG.    -3.379    -2.417     0.001     4.154
 HYBRID        -0.358     0.155    -0.000     0.390
 SUM           -3.736    -2.262     0.001     4.368


          ATOMIC ORBITAL ELECTRON POPULATIONS

     Atom    s        px        py        pz   
    1  C   1.07490   1.03131   1.06360   1.18835
    2  C   1.09698   0.98917   1.04856   0.82487
    3  C   1.06694   0.88651   1.01068   1.23513
    4  C   1.10246   0.98120   1.05380   0.79651
    5  C   1.05454   1.00068   0.98642   1.23170
    6  C   1.09060   0.78685   0.95354   0.78466
    7  O   1.83967   1.26319   1.43920   1.84813
    8  C   1.09286   0.77694   0.80013   0.67427
    9  O   1.87762   1.26385   1.82807   1.49375
   10  O   1.84064   1.51928   1.33316   1.87549
   11  N   1.44466   1.00248   0.97171   0.93808
   12  O   1.94158   1.71860   1.18568   1.54954
   13  O   1.94178   1.73650   1.17368   1.55947
   14  H   0.82197
   15  H   0.81305
   16  H   0.78856
   17  H   0.66794
   18  H   0.63851

 **********************
 *                    *
 * JOB ENDED NORMALLY *
 *                    *
 **********************



 TOTAL JOB TIME:             0.45 SECONDS

 == MOPAC DONE ==
