 *******************************************************************************
 ** Site#: 32691        For non-commercial use only    Version 19.179W 32BITS **
 *******************************************************************************
 ** Cite this program as: MOPAC2016, Version: 19.179W, James J. P. Stewart,   **
 ** Stewart Computational Chemistry, web: HTTP://OpenMOPAC.net. Days left: 337**
 *******************************************************************************
 **                                                                           **
 **                                MOPAC2016                                  **
 **                                                                           **
 *******************************************************************************

                              PM7 CALCULATION RESULTS

 *******************************************************************************
 *  CALCULATION DONE:                                Fri Jul 26 15:17:10 2019  *
 *  T=         - A TIME OF 172800.0 SECONDS REQUESTED
 *  DUMP=N     - RESTART FILE WRITTEN EVERY  7200.000 SECONDS
 *******************************************************************************

 2-hydroxy-5-nitrobenzoic acid2.mop

  ATOM    CHEMICAL      BOND LENGTH      BOND ANGLE     TWIST ANGLE 
 NUMBER    SYMBOL       (ANGSTROMS)      (DEGREES)       (DEGREES) 
   (I)                     NA:I           NB:NA:I       NC:NB:NA:I       NA    NB    NC 
     1       C          0.00000000       0.0000000       0.0000000        0     0     0
     2       C          1.34385200  *    0.0000000       0.0000000        1     0     0
     3       C          1.34296500  *  117.1738370  *    0.0000000        2     1     0
     4       C          1.34093700  *  120.0444110  *    0.0695940  *     3     2     1
     5       C          1.34635600  *  122.9084690  *    0.0053130  *     4     3     2
     6       C          1.34242800  *  123.1677980  *   -0.0934870  *     1     2     3
     7       C          1.36320000  *  115.8810700  * -179.9610510  *     6     1     2
     8       O          1.35948500  *  123.6864030  *   -0.2424480  *     7     6     1
     9       N          1.25499300  *  119.3583290  *  179.9160690  *     2     1     6
    10       O          1.31144400  *  123.6270530  *  179.8212660  *     9     2     1
    11       O          1.20736900  *  123.1752010  *  179.6466650  *     7     6     1
    12       O          1.31309900  *  119.8694480  *   -0.2876430  *     9     2     1
    13       O          1.36369500  *  117.8769350  * -179.8861760  *     5     4     3
    14       H          1.10126500  *  118.6407080  *  179.9304360  *     1     2     3
    15       H          1.10301900  *  121.4271080  * -179.9515310  *     3     2     1
    16       H          1.10407100  *  118.4390020  * -179.9731570  *     4     3     2
    17       H          0.97084000  *  107.6290370  *  178.6055790  *     8     7     6
    18       H          0.96540500  *  114.0262750  *  179.9701160  *    13     5     4
 


          CARTESIAN COORDINATES 

    NO.       ATOM           X           Y           Z

     1         C          0.0000      0.0000      0.0000
     2         C          1.3439      0.0000      0.0000
     3         C          1.9572      1.1947      0.0000
     4         C          1.2311      2.3221      0.0014
     5         C         -0.1152      2.3251      0.0030
     6         C         -0.7344      1.1237      0.0018
     7         C         -2.0866      0.9508      0.0024
     8         O         -2.6911     -0.2669     -0.0036
     9         N          1.9591     -1.0938     -0.0002
    10         O          3.2669     -1.1914     -0.0036
    11         O         -2.8701      1.8694      0.0102
    12         O          1.2873     -2.2220      0.0053
    13         O         -0.7502      3.5319      0.0019
    14         H         -0.5279     -0.9665     -0.0012
    15         H          3.0572      1.2765     -0.0008
    16         H          1.7627      3.2898      0.0009
    17         H         -3.6503     -0.1191      0.0208
    18         H         -1.7135      3.4692      0.0027

 General Reference for PM7:
 "Optimization of Parameters for Semiempirical Methods VI: More Modifications to the 
 NDDO Approximations and Re-optimization of Parameters", J. J. P. Stewart, J. Mol. Mod., 1:32, 19 (2013)
 http://www.springerlink.com/openurl.asp?genre=article&id=doi:10.1007/s00894-012-1667-x

           Empirical Formula: C7 H5 N O5  =    18 atoms



      MOLECULAR POINT GROUP   :   Cs  


      RHF CALCULATION, NO. OF DOUBLY OCCUPIED LEVELS = 34


          Geometry optimization using EF

          DIAGONAL MATRIX USED AS START HESSIAN

 CYCLE:     1 TIME:   0.016 TIME LEFT:  2.00D  GRAD.:   641.188 HEAT: -55.01800
 CYCLE:     2 TIME:   0.062 TIME LEFT:  2.00D  GRAD.:   623.063 HEAT: -64.83347
 CYCLE:     3 TIME:   0.031 TIME LEFT:  2.00D  GRAD.:   269.104 HEAT: -103.3425
 CYCLE:     4 TIME:   0.031 TIME LEFT:  2.00D  GRAD.:   870.361 HEAT: -105.3051
 CYCLE:     5 TIME:   0.016 TIME LEFT:  2.00D  GRAD.:   352.574 HEAT: -111.4723
 CYCLE:     6 TIME:   0.016 TIME LEFT:  2.00D  GRAD.:   214.437 HEAT: -115.6828
 CYCLE:     7 TIME:   0.016 TIME LEFT:  2.00D  GRAD.:    49.169 HEAT: -120.4135
 CYCLE:     8 TIME:   0.047 TIME LEFT:  2.00D  GRAD.:    57.517 HEAT: -120.5936
 CYCLE:     9 TIME:   0.016 TIME LEFT:  2.00D  GRAD.:    17.579 HEAT: -121.2765
 CYCLE:    10 TIME:   0.047 TIME LEFT:  2.00D  GRAD.:    19.683 HEAT: -121.3956
 CYCLE:    11 TIME:   0.016 TIME LEFT:  2.00D  GRAD.:    15.036 HEAT: -121.4504
 CYCLE:    12 TIME:   0.016 TIME LEFT:  2.00D  GRAD.:     7.132 HEAT: -121.5675
 CYCLE:    13 TIME:   0.016 TIME LEFT:  2.00D  GRAD.:     1.931 HEAT: -121.5915
 CYCLE:    14 TIME:   0.016 TIME LEFT:  2.00D  GRAD.:     1.081 HEAT: -121.5946
 CYCLE:    15 TIME:   0.016 TIME LEFT:  2.00D  GRAD.:     0.723 HEAT: -121.5961

     GRADIENT =  0.72329 IS LESS THAN CUTOFF =  1.00000



 -------------------------------------------------------------------------------

 2-hydroxy-5-nitrobenzoic acid2.mop



     GEOMETRY OPTIMISED USING EIGENVECTOR FOLLOWING (EF).     
     SCF FIELD WAS ACHIEVED                                   


                              PM7 CALCULATION
                                                       MOPAC2016 (Version: 19.179W)
                                                       Fri Jul 26 15:17:11 2019
                                                       No. of days remaining = 337




          FINAL HEAT OF FORMATION =       -121.59609 KCAL/MOL =    -508.75802 KJ/MOL


          TOTAL ENERGY            =      -2587.55722 EV
          ELECTRONIC ENERGY       =     -12390.00708 EV  POINT GROUP:     Cs  
          CORE-CORE REPULSION     =       9802.44987 EV
          COSMO AREA              =        184.84 SQUARE ANGSTROMS
          COSMO VOLUME            =        183.62 CUBIC ANGSTROMS

          GRADIENT NORM           =          0.72329 = 0.17048 PER ATOM
          IONIZATION POTENTIAL    =         10.426483 EV
          HOMO LUMO ENERGIES (EV) =        -10.426 -1.586
          NO. OF FILLED LEVELS    =         34
          MOLECULAR WEIGHT        =        183.1202

          MOLECULAR DIMENSIONS (Angstroms)

            Atom       Atom       Distance
            H    17    O    10     7.17085
            H    16    O    12     5.65694
            O    12    O     8     0.01023


          SCF CALCULATIONS        =         19
 
          WALL-CLOCK TIME         =          0.391 SECONDS
          COMPUTATION TIME        =          0.640 SECONDS




  ATOM    CHEMICAL      BOND LENGTH      BOND ANGLE     TWIST ANGLE 
 NUMBER    SYMBOL       (ANGSTROMS)      (DEGREES)       (DEGREES) 
   (I)                     NA:I           NB:NA:I       NC:NB:NA:I       NA    NB    NC 
     1       C          0.00000000       0.0000000       0.0000000        0     0     0
     2       C          1.39197710  *    0.0000000       0.0000000        1     0     0
     3       C          1.41227307  *  121.4684393  *    0.0000000        2     1     0
     4       C          1.37673811  *  119.7987823  *    0.0424021  *     3     2     1
     5       C          1.41252794  *  119.1538011  *   -0.0284967  *     4     3     2
     6       C          1.39770972  *  119.3290691  *   -0.0253941  *     1     2     3
     7       C          1.45693093  *  121.6651252  * -179.9864329  *     6     1     2
     8       O          1.34852149  *  113.2915304  *   -0.0836304  *     7     6     1
     9       N          1.44785522  *  119.5177615  *  179.9957162  *     2     1     6
    10       O          1.22100254  *  118.1002654  *  179.7892434  *     9     2     1
    11       O          1.21714717  *  126.1055820  *  179.8174440  *     7     6     1
    12       O          1.22036978  *  118.1982653  *   -0.2200792  *     9     2     1
    13       O          1.33019591  *  115.7335420  *  179.9341993  *     5     4     3
    14       H          1.10261221  *  120.4917042  *  179.9743675  *     1     2     3
    15       H          1.09857380  *  119.3538071  * -179.9606385  *     3     2     1
    16       H          1.09045924  *  121.9123189  *  179.9775092  *     4     3     2
    17       H          0.99649972  *  112.9936295  *  179.5760113  *     8     7     6
    18       H          1.02196360  *  111.8719433  * -179.9155358  *    13     5     4

                             CARTESIAN COORDINATES

   1    C        0.000000000     0.000000000     0.000000000
   2    C        1.391977097     0.000000000     0.000000000
   3    C        2.129224340     1.204567029     0.000000000
   4    C        1.467391880     2.411788976     0.000884144
   5    C        0.054902100     2.422168604     0.001166203
   6    C       -0.684632932     1.218552385     0.000540075
   7    C       -2.140353043     1.277937608     0.000860025
   8    O       -2.723615725     0.062079679    -0.001225352
   9    N        2.105325728    -1.259927880    -0.000464214
  10    O        3.325948281    -1.229725523    -0.004414991
  11    O       -2.816908184     2.289721870     0.004463994
  12    O        1.453513741    -2.291639784     0.003286885
  13    O       -0.513829802     3.624649444     0.003405361
  14    H       -0.559480436    -0.950123757    -0.000425058
  15    H        3.227049817     1.164030964    -0.000657810
  16    H        2.001954666     3.362232996     0.001277257
  17    H       -3.719038992     0.107850780     0.005790811
  18    H       -1.533950208     3.563316208     0.004885090


           Empirical Formula: C7 H5 N O5  =    18 atoms



      MOLECULAR POINT GROUP   :   Cs  


                  EIGENVALUES  
 -37.35232 -32.74336 -31.95066 -31.42528 -30.74665 -30.54337 -27.87426 -27.52673
 -24.70075 -24.18216 -22.29090 -21.22629 -19.31004 -18.95492 -18.29380 -17.84158
 -17.46975 -17.01318 -16.86070 -16.61415 -15.82532 -15.38232 -15.23212 -14.78600
 -14.21851 -13.47827 -13.41893 -12.94113 -12.05293 -11.46013 -11.42879 -11.40256
 -11.26811 -10.42648  -1.58567  -1.37220   0.01589   0.47817   0.57948   1.12610
   1.38272   1.48758   2.21111   2.84927   3.05666   3.32433   3.45072   3.53799
   3.86263   4.14990   4.35240   4.60215   4.74127   4.80965   4.93877   5.05703
   5.31551


              NET ATOMIC CHARGES AND DIPOLE CONTRIBUTIONS

  ATOM NO.   TYPE          CHARGE      No. of ELECS.   s-Pop       p-Pop       
    1          C           0.079224        3.9208     1.09992     2.82085
    2          C          -0.203012        4.2030     1.06585     3.13716
    3          C           0.031281        3.9687     1.09810     2.87062
    4          C          -0.300093        4.3001     1.07502     3.22507
    5          C           0.420606        3.5794     1.09148     2.48792
    6          C          -0.359527        4.3595     1.05351     3.30602
    7          C           0.680370        3.3196     1.09548     2.22415
    8          O          -0.517969        6.5180     1.83863     4.67934
    9          N           0.644278        4.3557     1.44434     2.91138
   10          O          -0.408079        6.4081     1.94171     4.46637
   11          O          -0.564868        6.5649     1.87969     4.68518
   12          O          -0.401968        6.4020     1.94166     4.46031
   13          O          -0.440325        6.4403     1.84174     4.59858
   14          H           0.204484        0.7955     0.79552
   15          H           0.188582        0.8114     0.81142
   16          H           0.195013        0.8050     0.80499
   17          H           0.367038        0.6330     0.63296
   18          H           0.384966        0.6150     0.61503
 DIPOLE           X         Y         Z       TOTAL
 POINT-CHG.    -1.303     2.623     0.007     2.928
 HYBRID        -0.945    -0.049     0.001     0.947
 SUM           -2.248     2.573     0.008     3.417


          ATOMIC ORBITAL ELECTRON POPULATIONS

     Atom    s        px        py        pz   
    1  C   1.09992   0.97812   1.05133   0.79141
    2  C   1.06585   0.97891   0.91711   1.24114
    3  C   1.09810   1.09132   0.94921   0.83009
    4  C   1.07502   0.99526   1.08406   1.14575
    5  C   1.09148   0.92732   0.80584   0.75476
    6  C   1.05351   0.99265   1.01700   1.29637
    7  C   1.09548   0.84081   0.73651   0.64683
    8  O   1.83863   1.39685   1.42744   1.85505
    9  N   1.44434   0.97892   0.99495   0.93751
   10  O   1.94171   0.98501   1.92391   1.55745
   11  O   1.87969   1.67918   1.44460   1.56140
   12  O   1.94166   1.64204   1.26490   1.55337
   13  O   1.84174   1.42323   1.34653   1.82883
   14  H   0.79552
   15  H   0.81142
   16  H   0.80499
   17  H   0.63296
   18  H   0.61503

 **********************
 *                    *
 * JOB ENDED NORMALLY *
 *                    *
 **********************



 TOTAL JOB TIME:             0.39 SECONDS

 == MOPAC DONE ==
