 *******************************************************************************
 ** Site#: 32691        For non-commercial use only    Version 19.179W 32BITS **
 *******************************************************************************
 ** Cite this program as: MOPAC2016, Version: 19.179W, James J. P. Stewart,   **
 ** Stewart Computational Chemistry, web: HTTP://OpenMOPAC.net. Days left: 337**
 *******************************************************************************
 **                                                                           **
 **                                MOPAC2016                                  **
 **                                                                           **
 *******************************************************************************

                              PM7 CALCULATION RESULTS

 *******************************************************************************
 *  CALCULATION DONE:                                Fri Jul 26 15:17:14 2019  *
 *  T=         - A TIME OF 172800.0 SECONDS REQUESTED
 *  DUMP=N     - RESTART FILE WRITTEN EVERY  7200.000 SECONDS
 *******************************************************************************

 2-hydroxy-5-nitrobenzoic acid3.mop

  ATOM    CHEMICAL      BOND LENGTH      BOND ANGLE     TWIST ANGLE 
 NUMBER    SYMBOL       (ANGSTROMS)      (DEGREES)       (DEGREES) 
   (I)                     NA:I           NB:NA:I       NC:NB:NA:I       NA    NB    NC 
     1       C          0.00000000       0.0000000       0.0000000        0     0     0
     2       C          1.33805200  *    0.0000000       0.0000000        1     0     0
     3       C          1.34502800  *  120.6214270  *    0.0000000        2     1     0
     4       C          1.34903900  *  117.1440880  *    0.4752620  *     3     2     1
     5       C          1.34976800  *  122.8069640  *   -0.3727720  *     4     3     2
     6       C          1.34276100  *  122.0774780  *   -0.2331600  *     1     2     3
     7       O          1.35990800  *  117.4658760  *  178.8959740  *     6     1     2
     8       C          1.36811400  *  120.6049680  * -179.8394200  *     5     4     3
     9       O          1.35717300  *  123.0613450  * -179.7385380  *     8     5     4
    10       O          1.21356600  *  124.0242810  *   -0.1090170  *     8     5     4
    11       N          1.25782200  *  120.3248450  * -179.4205600  *     3     2     1
    12       O          1.31270800  *  123.4080270  *  179.4890610  *    11     3     2
    13       O          1.31374800  *  122.4723380  *    0.0730270  *    11     3     2
    14       H          1.10384100  *  118.8480230  *  179.3242520  *     1     2     3
    15       H          1.10329400  *  117.2403800  * -179.7444700  *     2     1     6
    16       H          1.10242800  *  117.9555280  *  179.8694070  *     4     3     2
    17       H          0.97040900  *  109.3786820  *   -0.4008330  *     7     6     1
    18       H          0.97053900  *  107.8784970  *  178.8803610  *     9     8     5
 


          CARTESIAN COORDINATES 

    NO.       ATOM           X           Y           Z

     1         C          0.0000      0.0000      0.0000
     2         C          1.3381      0.0000      0.0000
     3         C          2.0232      1.1575      0.0000
     4         C          1.3036      2.2986      0.0100
     5         C         -0.0461      2.3121      0.0123
     6         C         -0.7131      1.1378      0.0046
     7         O         -2.0684      1.0286     -0.0191
     8         C         -0.7308      3.4965      0.0192
     9         O         -2.0860      3.5682      0.0270
    10         O         -0.1998      4.5877      0.0256
    11         N          3.2809      1.1510     -0.0110
    12         O          4.0093      2.2430     -0.0215
    13         O          3.9804      0.0390     -0.0242
    14         H         -0.5326     -0.9668     -0.0114
    15         H          1.8431     -0.9809     -0.0084
    16         H          1.8517      3.2551      0.0123
    17         H         -2.3155      0.0905     -0.0429
    18         H         -2.3346      4.5061      0.0489

 General Reference for PM7:
 "Optimization of Parameters for Semiempirical Methods VI: More Modifications to the 
 NDDO Approximations and Re-optimization of Parameters", J. J. P. Stewart, J. Mol. Mod., 1:32, 19 (2013)
 http://www.springerlink.com/openurl.asp?genre=article&id=doi:10.1007/s00894-012-1667-x

           Empirical Formula: C7 H5 N O5  =    18 atoms



      MOLECULAR POINT GROUP   :   Cs  


      RHF CALCULATION, NO. OF DOUBLY OCCUPIED LEVELS = 34


          Geometry optimization using EF

          DIAGONAL MATRIX USED AS START HESSIAN

 CYCLE:     1 TIME:   0.016 TIME LEFT:  2.00D  GRAD.:   648.756 HEAT: -49.15603
 CYCLE:     2 TIME:   0.043 TIME LEFT:  2.00D  GRAD.:   594.653 HEAT: -57.08130
 CYCLE:     3 TIME:   0.020 TIME LEFT:  2.00D  GRAD.:   288.551 HEAT: -94.29877
 CYCLE:     4 TIME:   0.016 TIME LEFT:  2.00D  GRAD.:   964.179 HEAT: -95.46398
 CYCLE:     5 TIME:   0.031 TIME LEFT:  2.00D  GRAD.:   304.780 HEAT: -105.8754
 CYCLE:     6 TIME:   0.012 TIME LEFT:  2.00D  GRAD.:   164.155 HEAT: -108.0243
 CYCLE:     7 TIME:   0.016 TIME LEFT:  2.00D  GRAD.:    88.985 HEAT: -108.7736
 CYCLE:     8 TIME:   0.031 TIME LEFT:  2.00D  GRAD.:    85.253 HEAT: -111.0208
 CYCLE:     9 TIME:   0.020 TIME LEFT:  2.00D  GRAD.:    19.762 HEAT: -111.5977
 CYCLE:    10 TIME:   0.012 TIME LEFT:  2.00D  GRAD.:    10.935 HEAT: -111.7601
 CYCLE:    11 TIME:   0.035 TIME LEFT:  2.00D  GRAD.:    20.748 HEAT: -111.7970
 CYCLE:    12 TIME:   0.027 TIME LEFT:  2.00D  GRAD.:     8.320 HEAT: -111.9118
 CYCLE:    13 TIME:   0.016 TIME LEFT:  2.00D  GRAD.:     2.078 HEAT: -111.9280
 CYCLE:    14 TIME:   0.016 TIME LEFT:  2.00D  GRAD.:     0.839 HEAT: -111.9301

     GRADIENT =  0.83905 IS LESS THAN CUTOFF =  1.00000



 -------------------------------------------------------------------------------

 2-hydroxy-5-nitrobenzoic acid3.mop



     GEOMETRY OPTIMISED USING EIGENVECTOR FOLLOWING (EF).     
     SCF FIELD WAS ACHIEVED                                   


                              PM7 CALCULATION
                                                       MOPAC2016 (Version: 19.179W)
                                                       Fri Jul 26 15:17:15 2019
                                                       No. of days remaining = 337




          FINAL HEAT OF FORMATION =       -111.93013 KCAL/MOL =    -468.31568 KJ/MOL


          TOTAL ENERGY            =      -2587.23600 EV
          ELECTRONIC ENERGY       =     -12366.86557 EV  POINT GROUP:     Cs  
          CORE-CORE REPULSION     =       9779.62957 EV
          COSMO AREA              =        186.51 SQUARE ANGSTROMS
          COSMO VOLUME            =        185.55 CUBIC ANGSTROMS

          GRADIENT NORM           =          0.83905 = 0.19777 PER ATOM
          IONIZATION POTENTIAL    =         10.464467 EV
          HOMO LUMO ENERGIES (EV) =        -10.464 -1.538
          NO. OF FILLED LEVELS    =         34
          MOLECULAR WEIGHT        =        183.1202

          MOLECULAR DIMENSIONS (Angstroms)

            Atom       Atom       Distance
            H    18    O    13     7.90492
            H    17    O    12     5.31546
            H    17    H    15     0.01488


          SCF CALCULATIONS        =         17
 
          WALL-CLOCK TIME         =          0.348 SECONDS
          COMPUTATION TIME        =          0.593 SECONDS




  ATOM    CHEMICAL      BOND LENGTH      BOND ANGLE     TWIST ANGLE 
 NUMBER    SYMBOL       (ANGSTROMS)      (DEGREES)       (DEGREES) 
   (I)                     NA:I           NB:NA:I       NC:NB:NA:I       NA    NB    NC 
     1       C          0.00000000       0.0000000       0.0000000        0     0     0
     2       C          1.38162801  *    0.0000000       0.0000000        1     0     0
     3       C          1.40556248  *  119.4417866  *    0.0000000        2     1     0
     4       C          1.39563673  *  121.2741066  *    0.2242024  *     3     2     1
     5       C          1.39760799  *  119.8963281  *   -0.2302512  *     4     3     2
     6       C          1.40873087  *  119.4329967  *   -0.0663375  *     1     2     3
     7       O          1.33882687  *  121.2004291  *  179.8831430  *     6     1     2
     8       C          1.46837267  *  116.3974838  * -179.9874061  *     5     4     3
     9       O          1.35286432  *  113.8576059  * -179.8192632  *     8     5     4
    10       O          1.20786619  *  125.7492902  *    0.0952772  *     8     5     4
    11       N          1.44911331  *  119.1130140  * -179.8035219  *     3     2     1
    12       O          1.21935370  *  118.2921585  *  179.8211792  *    11     3     2
    13       O          1.22147364  *  117.9020061  *   -0.1608540  *    11     3     2
    14       H          1.08694415  *  120.4997836  *  179.9017697  *     1     2     3
    15       H          1.09824548  *  120.8148881  * -179.9709742  *     2     1     6
    16       H          1.10540387  *  120.3463003  *  179.7605121  *     4     3     2
    17       H          0.99680044  *  112.8470570  *   -0.0698245  *     7     6     1
    18       H          0.99443327  *  112.3728961  *  179.6191132  *     9     8     5

                             CARTESIAN COORDINATES

   1    C        0.000000000     0.000000000     0.000000000
   2    C        1.381628011     0.000000000     0.000000000
   3    C        2.072516805     1.224041900     0.000000000
   4    C        1.389862269     2.441318727     0.004667661
   5    C       -0.007665828     2.456261817     0.004589693
   6    C       -0.692257966     1.226906502     0.001420523
   7    O       -2.030445814     1.268203280    -0.000867302
   8    C       -0.646398551     3.778425146     0.009380441
   9    O       -1.998492398     3.732916021     0.012987890
  10    O       -0.070688974     4.840260271     0.011701241
  11    N        3.521599772     1.215730354    -0.004341466
  12    O        4.105675571     2.286089205    -0.007632553
  13    O        4.087001742     0.132993895    -0.004824426
  14    H       -0.551662317    -0.936543480    -0.001605652
  15    H        1.944221882    -0.943201365    -0.001569869
  16    H        1.948734084     3.395029722     0.008584964
  17    H       -2.445620405     0.361987727    -0.004681719
  18    H       -2.407701411     4.639204431     0.022306293


           Empirical Formula: C7 H5 N O5  =    18 atoms



      MOLECULAR POINT GROUP   :   Cs  


                  EIGENVALUES  
 -37.34259 -32.45671 -31.83908 -31.39442 -30.74141 -30.18433 -27.85117 -27.41959
 -24.78179 -23.85303 -22.36363 -20.83469 -19.54628 -19.05734 -18.08085 -17.52177
 -17.44634 -16.84778 -16.55790 -16.24815 -15.89608 -15.29537 -15.18421 -14.33235
 -14.14545 -13.49282 -13.16172 -12.29711 -11.51239 -11.43216 -11.38209 -11.35189
 -11.24419 -10.46447  -1.53775  -1.32697   0.06019   0.57144   0.79508   1.20353
   1.50380   1.67078   2.55907   2.76854   3.17526   3.25619   3.43690   3.84348
   4.09381   4.25422   4.41401   4.55119   4.74157   4.84791   4.96985   5.08022
   5.25791


              NET ATOMIC CHARGES AND DIPOLE CONTRIBUTIONS

  ATOM NO.   TYPE          CHARGE      No. of ELECS.   s-Pop       p-Pop       
    1          C          -0.361139        4.3611     1.07569     3.28545
    2          C           0.040262        3.9597     1.09694     2.86280
    3          C          -0.195976        4.1960     1.06629     3.12968
    4          C           0.056617        3.9434     1.10397     2.83941
    5          C          -0.275985        4.2760     1.05463     3.22136
    6          C           0.394233        3.6058     1.08979     2.51598
    7          O          -0.391211        6.3912     1.83927     4.55194
    8          C           0.654313        3.3457     1.09304     2.25265
    9          O          -0.515652        6.5157     1.84186     4.67379
   10          O          -0.505318        6.5053     1.87946     4.62586
   11          N           0.642697        4.3573     1.44458     2.91272
   12          O          -0.391151        6.3912     1.94158     4.44957
   13          O          -0.411760        6.4118     1.94184     4.46992
   14          H           0.176567        0.8234     0.82343
   15          H           0.187057        0.8129     0.81294
   16          H           0.212672        0.7873     0.78733
   17          H           0.330057        0.6699     0.66994
   18          H           0.353717        0.6463     0.64628
 DIPOLE           X         Y         Z       TOTAL
 POINT-CHG.    -5.325    -3.446     0.015     6.343
 HYBRID        -0.444     0.092     0.001     0.454
 SUM           -5.769    -3.354     0.017     6.673


          ATOMIC ORBITAL ELECTRON POPULATIONS

     Atom    s        px        py        pz   
    1  C   1.07569   1.03230   1.06441   1.18875
    2  C   1.09694   0.98885   1.04890   0.82505
    3  C   1.06629   0.88730   1.00920   1.23318
    4  C   1.10397   0.97957   1.05840   0.80144
    5  C   1.05463   0.99946   0.98899   1.23291
    6  C   1.08979   0.78423   0.95168   0.78007
    7  O   1.83927   1.26817   1.43582   1.84795
    8  C   1.09304   0.74677   0.83614   0.66973
    9  O   1.84186   1.34424   1.47088   1.85867
   10  O   1.87946   1.71790   1.39209   1.51587
   11  N   1.44458   1.00170   0.97224   0.93878
   12  O   1.94158   1.71932   1.18274   1.54751
   13  O   1.94184   1.73529   1.17458   1.56006
   14  H   0.82343
   15  H   0.81294
   16  H   0.78733
   17  H   0.66994
   18  H   0.64628

 **********************
 *                    *
 * JOB ENDED NORMALLY *
 *                    *
 **********************



 TOTAL JOB TIME:             0.35 SECONDS

 == MOPAC DONE ==
