 *******************************************************************************
 ** Site#: 32691        For non-commercial use only    Version 19.179W 32BITS **
 *******************************************************************************
 ** Cite this program as: MOPAC2016, Version: 19.179W, James J. P. Stewart,   **
 ** Stewart Computational Chemistry, web: HTTP://OpenMOPAC.net. Days left: 337**
 *******************************************************************************
 **                                                                           **
 **                                MOPAC2016                                  **
 **                                                                           **
 *******************************************************************************

                              PM7 CALCULATION RESULTS

 *******************************************************************************
 *  CALCULATION DONE:                                Fri Jul 26 15:17:07 2019  *
 *  T=         - A TIME OF 172800.0 SECONDS REQUESTED
 *  DUMP=N     - RESTART FILE WRITTEN EVERY  7200.000 SECONDS
 *******************************************************************************

 2-hydroxy-5-nitrobenzoic acid.mop

  ATOM    CHEMICAL      BOND LENGTH      BOND ANGLE     TWIST ANGLE 
 NUMBER    SYMBOL       (ANGSTROMS)      (DEGREES)       (DEGREES) 
   (I)                     NA:I           NB:NA:I       NC:NB:NA:I       NA    NB    NC 
     1       C          0.00000000       0.0000000       0.0000000        0     0     0
     2       C          1.34265200  *    0.0000000       0.0000000        1     0     0
     3       C          1.33652800  *  122.1690350  *    0.0000000        2     1     0
     4       C          1.34475900  *  120.5768080  *    0.3968250  *     3     2     1
     5       C          1.34917400  *  117.4992260  *   -0.2023400  *     4     3     2
     6       C          1.35533400  *  118.0240480  *   -0.3808560  *     1     2     3
     7       C          1.36636100  *  120.5438290  *  179.3743150  *     6     1     2
     8       O          1.35960900  *  121.0159260  *   -0.7553520  *     7     6     1
     9       O          1.21401100  *  129.6416880  *  179.3697250  *     7     6     1
    10       N          1.25680100  *  119.6265790  *  179.8126340  *     4     3     2
    11       O          1.31185600  *  123.5479380  *  179.8927900  *    10     4     3
    12       O          1.31311400  *  121.7095110  *   -0.2773680  *    10     4     3
    13       O          1.36470300  *  116.5140300  * -178.5760610  *     1     2     3
    14       H          1.10417000  *  119.1690930  *  179.2894400  *     2     1     6
    15       H          1.10333000  *  116.9028790  * -179.9625790  *     3     2     1
    16       H          1.10295900  *  118.8140220  * -179.7281220  *     5     4     3
    17       H          0.96971400  *  109.5055950  * -179.7220270  *     8     7     6
    18       H          0.96789000  *  112.0990310  *  138.9328490  *    13     1     2
 


          CARTESIAN COORDINATES 

    NO.       ATOM           X           Y           Z

     1         C          0.0000      0.0000      0.0000
     2         C          1.3427      0.0000      0.0000
     3         C          2.0542      1.1313      0.0000
     4         C          1.4385      2.3268      0.0080
     5         C          0.0893      2.3326      0.0117
     6         C         -0.6368      1.1964      0.0080
     7         C         -2.0018      1.2566     -0.0045
     8         O         -2.7527      0.1237     -0.0404
     9         O         -2.7345      2.2244      0.0101
    10         N          2.1252      3.3794      0.0114
    11         O          1.6056      4.5840      0.0172
    12         O          3.4379      3.3471      0.0128
    13         O         -0.6092     -1.2208      0.0303
    14         H          1.8808     -0.9641      0.0055
    15         H          3.1529      1.0301     -0.0006
    16         H         -0.4382      3.3012      0.0137
    17         H         -3.6934      0.3589     -0.0486
    18         H         -1.3768     -1.2301      0.6199

 General Reference for PM7:
 "Optimization of Parameters for Semiempirical Methods VI: More Modifications to the 
 NDDO Approximations and Re-optimization of Parameters", J. J. P. Stewart, J. Mol. Mod., 1:32, 19 (2013)
 http://www.springerlink.com/openurl.asp?genre=article&id=doi:10.1007/s00894-012-1667-x

           Empirical Formula: C7 H5 N O5  =    18 atoms



      MOLECULAR POINT GROUP   :   C1  


      RHF CALCULATION, NO. OF DOUBLY OCCUPIED LEVELS = 34


          Geometry optimization using EF

          DIAGONAL MATRIX USED AS START HESSIAN

 CYCLE:     1 TIME:   0.078 TIME LEFT:  2.00D  GRAD.:   593.004 HEAT: -52.45741
 CYCLE:     2 TIME:   0.031 TIME LEFT:  2.00D  GRAD.:   623.875 HEAT: -61.57524
 CYCLE:     3 TIME:   0.016 TIME LEFT:  2.00D  GRAD.:   229.839 HEAT: -98.86266
 CYCLE:     4 TIME:   0.016 TIME LEFT:  2.00D  GRAD.:   343.471 HEAT: -110.1426
 CYCLE:     5 TIME:   0.016 TIME LEFT:  2.00D  GRAD.:   299.171 HEAT: -111.2600
 CYCLE:     6 TIME:   0.016 TIME LEFT:  2.00D  GRAD.:   100.483 HEAT: -114.1462
 CYCLE:     7 TIME:   0.031 TIME LEFT:  2.00D  GRAD.:   142.172 HEAT: -115.3293
 CYCLE:     8 TIME:   0.016 TIME LEFT:  2.00D  GRAD.:    39.877 HEAT: -116.1973
 CYCLE:     9 TIME:   0.031 TIME LEFT:  2.00D  GRAD.:    40.153 HEAT: -116.9817
 CYCLE:    10 TIME:   0.016 TIME LEFT:  2.00D  GRAD.:    28.217 HEAT: -117.6449
 CYCLE:    11 TIME:   0.016 TIME LEFT:  2.00D  GRAD.:    38.260 HEAT: -118.1102
 CYCLE:    12 TIME:   0.016 TIME LEFT:  2.00D  GRAD.:    26.996 HEAT: -118.5937
 CYCLE:    13 TIME:   0.016 TIME LEFT:  2.00D  GRAD.:     8.020 HEAT: -118.8135
 CYCLE:    14 TIME:   0.016 TIME LEFT:  2.00D  GRAD.:     8.475 HEAT: -118.9403
 CYCLE:    15 TIME:   0.016 TIME LEFT:  2.00D  GRAD.:     6.254 HEAT: -118.9897
 CYCLE:    16 TIME:   0.016 TIME LEFT:  2.00D  GRAD.:     4.013 HEAT: -119.0280
 CYCLE:    17 TIME:   0.016 TIME LEFT:  2.00D  GRAD.:     2.928 HEAT: -119.0481
 CYCLE:    18 TIME:   0.016 TIME LEFT:  2.00D  GRAD.:     3.462 HEAT: -119.0653
 CYCLE:    19 TIME:   0.016 TIME LEFT:  2.00D  GRAD.:     3.162 HEAT: -119.0787
 CYCLE:    20 TIME:   0.000 TIME LEFT:  2.00D  GRAD.:     1.430 HEAT: -119.0886
 CYCLE:    21 TIME:   0.016 TIME LEFT:  2.00D  GRAD.:     4.347 HEAT: -119.0963
 CYCLE:    22 TIME:   0.016 TIME LEFT:  2.00D  GRAD.:     1.144 HEAT: -119.1020
 CYCLE:    23 TIME:   0.000 TIME LEFT:  2.00D  GRAD.:     0.632 HEAT: -119.1045

     GRADIENT =  0.63249 IS LESS THAN CUTOFF =  1.00000



 -------------------------------------------------------------------------------

 2-hydroxy-5-nitrobenzoic acid.mop



     GEOMETRY OPTIMISED USING EIGENVECTOR FOLLOWING (EF).     
     SCF FIELD WAS ACHIEVED                                   


                              PM7 CALCULATION
                                                       MOPAC2016 (Version: 19.179W)
                                                       Fri Jul 26 15:17:07 2019
                                                       No. of days remaining = 337




          FINAL HEAT OF FORMATION =       -119.10447 KCAL/MOL =    -498.33312 KJ/MOL


          TOTAL ENERGY            =      -2587.46773 EV
          ELECTRONIC ENERGY       =     -12377.87539 EV  POINT GROUP:     C1  
          CORE-CORE REPULSION     =       9790.40766 EV
          COSMO AREA              =        185.45 SQUARE ANGSTROMS
          COSMO VOLUME            =        184.38 CUBIC ANGSTROMS

          GRADIENT NORM           =          0.63249 = 0.14908 PER ATOM
          IONIZATION POTENTIAL    =         10.433643 EV
          HOMO LUMO ENERGIES (EV) =        -10.434 -1.560
          NO. OF FILLED LEVELS    =         34
          MOLECULAR WEIGHT        =        183.1202

          MOLECULAR DIMENSIONS (Angstroms)

            Atom       Atom       Distance
            H    17    O    12     7.91239
            H    14    O    11     5.28893
            O     9    O     8     0.20583


          SCF CALCULATIONS        =         26
 
          WALL-CLOCK TIME         =          0.453 SECONDS
          COMPUTATION TIME        =          0.796 SECONDS




  ATOM    CHEMICAL      BOND LENGTH      BOND ANGLE     TWIST ANGLE 
 NUMBER    SYMBOL       (ANGSTROMS)      (DEGREES)       (DEGREES) 
   (I)                     NA:I           NB:NA:I       NC:NB:NA:I       NA    NB    NC 
     1       C          0.00000000       0.0000000       0.0000000        0     0     0
     2       C          1.41460835  *    0.0000000       0.0000000        1     0     0
     3       C          1.37599848  *  119.3485642  *    0.0000000        2     1     0
     4       C          1.41162526  *  119.5614983  *    0.1014481  *     3     2     1
     5       C          1.39036018  *  121.3748343  *   -0.0182658  *     4     3     2
     6       C          1.40752471  *  121.3890396  *   -0.2037504  *     1     2     3
     7       C          1.45984206  *  125.1520493  * -179.8469393  *     6     1     2
     8       O          1.37141692  *  112.6139085  *    5.5812304  *     7     6     1
     9       O          1.20111273  *  128.3704869  * -174.6960309  *     7     6     1
    10       N          1.44909459  *  118.9754629  * -179.9942586  *     4     3     2
    11       O          1.21981033  *  118.1639104  *  179.9486521  *    10     4     3
    12       O          1.22081147  *  118.0460193  *   -0.0599443  *    10     4     3
    13       O          1.33251652  *  114.0814651  *  179.2225846  *     1     2     3
    14       H          1.09040318  *  118.7862516  *  179.9201960  *     2     1     6
    15       H          1.09834865  *  120.9559970  * -179.8720679  *     3     2     1
    16       H          1.10420645  *  120.4552428  * -179.9892252  *     5     4     3
    17       H          0.98796217  *  114.0964541  * -176.4946091  *     8     7     6
    18       H          1.00767163  *  112.6943900  *  179.0472660  *    13     1     2

                             CARTESIAN COORDINATES

   1    C        0.000000000     0.000000000     0.000000000
   2    C        1.414608349     0.000000000     0.000000000
   3    C        2.089014714     1.199394791     0.000000000
   4    C        1.360077187     2.408250135     0.002174069
   5    C       -0.030264681     2.415162942     0.003947427
   6    C       -0.733104095     1.201526500     0.004272785
   7    C       -2.189795172     1.297325775     0.007802091
   8    O       -2.798402283     0.074406984     0.129668393
   9    O       -2.872431461     2.282074671    -0.075559171
  10    N        2.083191320     3.664029198     0.002020794
  11    O        1.438570120     4.699596616     0.002952331
  12    O        3.303339331     3.623796457     0.001127394
  13    O       -0.543713569    -1.216430592    -0.016506100
  14    H        1.939684791    -0.955651381    -0.002067338
  15    H        3.186929103     1.230206065    -0.002103112
  16    H       -0.585207469     3.369787533     0.005458983
  17    H       -3.784530964     0.107848762     0.079657270
  18    H       -1.550972587    -1.192302639    -0.000719391


           Empirical Formula: C7 H5 N O5  =    18 atoms



      MOLECULAR POINT GROUP   :   C1  


                  EIGENVALUES  
 -37.34740 -32.58197 -32.15017 -31.41132 -30.74792 -30.42260 -27.85992 -27.52185
 -24.76302 -24.24974 -21.98518 -21.34773 -19.72246 -19.02990 -18.10957 -17.85161
 -17.45776 -17.10360 -16.65185 -16.47890 -15.85077 -15.40576 -15.32307 -14.59232
 -14.47252 -13.52062 -13.13573 -13.01210 -12.02972 -11.44206 -11.39755 -11.38953
 -11.25574 -10.43364  -1.55958  -1.35422   0.04620   0.54961   0.57822   1.01138
   1.40128   1.43406   2.38715   2.77709   3.11316   3.30049   3.40590   3.73197
   4.04345   4.15073   4.35114   4.56414   4.75729   4.80264   5.00524   5.07281
   5.33388


              NET ATOMIC CHARGES AND DIPOLE CONTRIBUTIONS

  ATOM NO.   TYPE          CHARGE      No. of ELECS.   s-Pop       p-Pop       
    1          C           0.423256        3.5767     1.09030     2.48644
    2          C          -0.297974        4.2980     1.07577     3.22221
    3          C           0.026198        3.9738     1.09757     2.87623
    4          C          -0.195774        4.1958     1.06582     3.12995
    5          C           0.063942        3.9361     1.10168     2.83438
    6          C          -0.347253        4.3473     1.05498     3.29227
    7          C           0.673965        3.3260     1.09680     2.22924
    8          O          -0.632008        6.6320     1.82960     4.80240
    9          O          -0.462243        6.4622     1.87778     4.58446
   10          N           0.643441        4.3566     1.44446     2.91210
   11          O          -0.397083        6.3971     1.94160     4.45548
   12          O          -0.408153        6.4082     1.94169     4.46646
   13          O          -0.438145        6.4381     1.83795     4.60020
   14          H           0.193863        0.8061     0.80614
   15          H           0.188953        0.8110     0.81105
   16          H           0.207258        0.7927     0.79274
   17          H           0.383840        0.6162     0.61616
   18          H           0.373920        0.6261     0.62608
 DIPOLE           X         Y         Z       TOTAL
 POINT-CHG.    -1.328    -5.014    -0.028     5.187
 HYBRID        -0.943    -0.070     0.007     0.946
 SUM           -2.271    -5.084    -0.021     5.568


          ATOMIC ORBITAL ELECTRON POPULATIONS

     Atom    s        px        py        pz   
    1  C   1.09030   0.92579   0.80214   0.75851
    2  C   1.07577   0.99415   1.08577   1.14228
    3  C   1.09757   1.09180   0.94944   0.83499
    4  C   1.06582   0.97708   0.91795   1.23492
    5  C   1.10168   0.98044   1.05269   0.80124
    6  C   1.05498   0.99105   1.01369   1.28753
    7  C   1.09680   0.83633   0.72686   0.66604
    8  O   1.82960   1.41848   1.49985   1.88407
    9  O   1.87778   1.65329   1.43132   1.49986
   10  N   1.44446   0.97918   0.99459   0.93832
   11  O   1.94160   1.64702   1.25771   1.55074
   12  O   1.94169   0.98564   1.92295   1.55787
   13  O   1.83795   1.41550   1.34791   1.83678
   14  H   0.80614
   15  H   0.81105
   16  H   0.79274
   17  H   0.61616
   18  H   0.62608

 **********************
 *                    *
 * JOB ENDED NORMALLY *
 *                    *
 **********************



 TOTAL JOB TIME:             0.45 SECONDS

 == MOPAC DONE ==
