 *******************************************************************************
 ** Site#: 32691        For non-commercial use only    Version 19.179W 32BITS **
 *******************************************************************************
 ** Cite this program as: MOPAC2016, Version: 19.179W, James J. P. Stewart,   **
 ** Stewart Computational Chemistry, web: HTTP://OpenMOPAC.net. Days left: 339**
 *******************************************************************************
 **                                                                           **
 **                                MOPAC2016                                  **
 **                                                                           **
 *******************************************************************************

                              PM7 CALCULATION RESULTS

 *******************************************************************************
 *  CALCULATION DONE:                                Wed Jul 24 16:01:40 2019  *
 *  SYMMETRY   - SYMMETRY CONDITIONS TO BE IMPOSED
 *  T=         - A TIME OF 172800.0 SECONDS REQUESTED
 *  DUMP=N     - RESTART FILE WRITTEN EVERY  7200.000 SECONDS
 *******************************************************************************



                    PARAMETER DEPENDENCE DATA

        REFERENCE ATOM      FUNCTION NO.    DEPENDENT ATOM(S)

             DESCRIPTIONS OF THE FUNCTIONS USED
 
 SYMMETRY
 2-nitrobenzaldehyde.mop

  ATOM    CHEMICAL      BOND LENGTH      BOND ANGLE     TWIST ANGLE 
 NUMBER    SYMBOL       (ANGSTROMS)      (DEGREES)       (DEGREES) 
   (I)                     NA:I           NB:NA:I       NC:NB:NA:I       NA    NB    NC 
     1       C          0.00000000       0.0000000       0.0000000        0     0     0
     2       C          1.33962800  *    0.0000000       0.0000000        1     0     0
     3       C          1.33615700  *  118.9582850  *    0.0000000        2     1     0
     4       C          1.33989600  *  119.1156600  *   -0.0010530  *     3     2     1
     5       C          1.35303000  *  123.0252490  *    0.0003690  *     4     3     2
     6       C          1.35144800  *  122.5313000  *    0.0005140  *     1     2     3
     7       C          1.36692500  *  116.7655510  * -179.9984660  *     6     1     2
     8       O          1.21131100  *  125.1144790  *   -0.0007220  *     7     6     1
     9       N          1.26009500  *  116.8178450  * -179.9985750  *     5     4     3
    10       O          1.30814300  *  127.6089100  *  179.9973830  *     9     5     4
    11       O          1.30970300  *  123.3434160  *   -0.0010510  *     9     5     4
    12       H          1.10319900  *  114.9692700  * -179.9991340  *     1     2     3
    13       H          1.10304200  *  120.8484800  *  179.9999320  *     2     1     6
    14       H          1.10308000  *  120.0986730  *  179.9994480  *     3     2     1
    15       H          1.10406200  *  114.7684910  * -179.9992370  *     4     3     2
    16       H          1.10480500  *  120.5006310  *  179.9984350  *     7     6     1
 


          CARTESIAN COORDINATES 

    NO.       ATOM           X           Y           Z

     1         C          0.0000      0.0000      0.0000
     2         C          1.3396      0.0000      0.0000
     3         C          1.9866      1.1691      0.0000
     4         C          1.2780      2.3063     -0.0000
     5         C         -0.0748      2.3323     -0.0000
     6         C         -0.7268      1.1394     -0.0000
     7         C         -2.0868      1.0021      0.0000
     8         O         -2.6805     -0.0538      0.0000
     9         N         -0.6216      3.4675     -0.0001
    10         O         -1.9017      3.7371     -0.0002
    11         O          0.0517      4.5909     -0.0001
    12         H         -0.4657     -1.0001      0.0000
    13         H          1.9052     -0.9470      0.0000
    14         H          3.0894      1.1911      0.0000
    15         H          1.8842      3.2290     -0.0000
    16         H         -2.7403      1.8929      0.0000

 General Reference for PM7:
 "Optimization of Parameters for Semiempirical Methods VI: More Modifications to the 
 NDDO Approximations and Re-optimization of Parameters", J. J. P. Stewart, J. Mol. Mod., 1:32, 19 (2013)
 http://www.springerlink.com/openurl.asp?genre=article&id=doi:10.1007/s00894-012-1667-x

           Empirical Formula: C7 H5 N O3  =    16 atoms



      MOLECULAR POINT GROUP   :   Cs  


      RHF CALCULATION, NO. OF DOUBLY OCCUPIED LEVELS = 28


          Geometry optimization using EF

          DIAGONAL MATRIX USED AS START HESSIAN

 CYCLE:     1 TIME:   0.047 TIME LEFT:  2.00D  GRAD.:   670.247 HEAT:  53.60936
 CYCLE:     2 TIME:   0.078 TIME LEFT:  2.00D  GRAD.:   609.805 HEAT:  50.96401
 CYCLE:     3 TIME:   0.016 TIME LEFT:  2.00D  GRAD.:   343.011 HEAT:  12.57278
 CYCLE:     4 TIME:   0.016 TIME LEFT:  2.00D  GRAD.:   941.314 HEAT:  11.65951
 CYCLE:     5 TIME:   0.016 TIME LEFT:  2.00D  GRAD.:   175.057 HEAT: -4.108196
 CYCLE:     6 TIME:   0.031 TIME LEFT:  2.00D  GRAD.:    87.095 HEAT: -5.663163
 CYCLE:     7 TIME:   0.016 TIME LEFT:  2.00D  GRAD.:    60.431 HEAT: -6.097524
 CYCLE:     8 TIME:   0.016 TIME LEFT:  2.00D  GRAD.:    44.530 HEAT: -6.483217
 CYCLE:     9 TIME:   0.000 TIME LEFT:  2.00D  GRAD.:    17.168 HEAT: -6.682684
 CYCLE:    10 TIME:   0.031 TIME LEFT:  2.00D  GRAD.:     9.145 HEAT: -6.747691
 CYCLE:    11 TIME:   0.016 TIME LEFT:  2.00D  GRAD.:    18.029 HEAT: -6.786456
 CYCLE:    12 TIME:   0.016 TIME LEFT:  2.00D  GRAD.:     6.808 HEAT: -6.825289
 CYCLE:    13 TIME:   0.016 TIME LEFT:  2.00D  GRAD.:     2.959 HEAT: -6.833958
 CYCLE:    14 TIME:   0.000 TIME LEFT:  2.00D  GRAD.:     1.387 HEAT: -6.835838
 CYCLE:    15 TIME:   0.016 TIME LEFT:  2.00D  GRAD.:     0.383 HEAT: -6.836391

     GRADIENT =  0.38293 IS LESS THAN CUTOFF =  1.00000



 -------------------------------------------------------------------------------
 SYMMETRY
 2-nitrobenzaldehyde.mop



     GEOMETRY OPTIMISED USING EIGENVECTOR FOLLOWING (EF).     
     SCF FIELD WAS ACHIEVED                                   


                              PM7 CALCULATION
                                                       MOPAC2016 (Version: 19.179W)
                                                       Wed Jul 24 16:01:41 2019
                                                       No. of days remaining = 339




          FINAL HEAT OF FORMATION =         -6.83639 KCAL/MOL =     -28.60346 KJ/MOL


          TOTAL ENERGY            =      -1995.67630 EV
          ELECTRONIC ENERGY       =      -9103.30823 EV  POINT GROUP:     Cs  
          CORE-CORE REPULSION     =       7107.63193 EV
          COSMO AREA              =        165.81 SQUARE ANGSTROMS
          COSMO VOLUME            =        163.30 CUBIC ANGSTROMS

          GRADIENT NORM           =          0.38293 = 0.09573 PER ATOM
          IONIZATION POTENTIAL    =         10.609145 EV
          HOMO LUMO ENERGIES (EV) =        -10.609 -1.826
          NO. OF FILLED LEVELS    =         28
          MOLECULAR WEIGHT        =        151.1214

          MOLECULAR DIMENSIONS (Angstroms)

            Atom       Atom       Distance
            H    16    H    14     6.06656
            H    12    O    11     5.68202
            O     8    O    10     0.00098


          SCF CALCULATIONS        =         19
 
          WALL-CLOCK TIME         =          0.355 SECONDS
          COMPUTATION TIME        =          0.577 SECONDS




  ATOM    CHEMICAL      BOND LENGTH      BOND ANGLE     TWIST ANGLE 
 NUMBER    SYMBOL       (ANGSTROMS)      (DEGREES)       (DEGREES) 
   (I)                     NA:I           NB:NA:I       NC:NB:NA:I       NA    NB    NC 
     1       C          0.00000000       0.0000000       0.0000000        0     0     0
     2       C          1.39388372  *    0.0000000       0.0000000        1     0     0
     3       C          1.39227590  *  119.9307013  *    0.0000000        2     1     0
     4       C          1.39264004  *  119.8546524  *    0.0101920  *     3     2     1
     5       C          1.39914226  *  119.9137094  *    0.0031594  *     4     3     2
     6       C          1.39704223  *  121.1216356  *   -0.0130667  *     1     2     3
     7       C          1.49722810  *  116.1928701  *  179.9981909  *     6     1     2
     8       O          1.20695712  *  119.4008009  *   -0.0155459  *     7     6     1
     9       N          1.46063099  *  116.3866449  *  179.9964839  *     5     4     3
    10       O          1.22039846  *  119.2037525  * -179.9956103  *     9     5     4
    11       O          1.21978108  *  117.8224392  *    0.0026720  *     9     5     4
    12       H          1.09766218  *  119.8545645  *  179.9936684  *     1     2     3
    13       H          1.09106099  *  119.9143301  *  179.9935330  *     2     1     6
    14       H          1.09084104  *  120.3330484  * -179.9947780  *     3     2     1
    15       H          1.09655598  *  119.9092755  * -179.9992692  *     4     3     2
    16       H          1.09739337  *  119.8756208  *  179.9860270  *     7     6     1

                             CARTESIAN COORDINATES

   1    C        0.000000000     0.000000000     0.000000000
   2    C        1.393883716     0.000000000     0.000000000
   3    C        2.088562818     1.206587388     0.000000000
   4    C        1.387729462     2.410031961     0.000214854
   5    C       -0.011393469     2.402683210     0.000496764
   6    C       -0.722070540     1.195968672     0.000272749
   7    C       -2.213762317     1.067331143     0.000200992
   8    O       -2.713743168    -0.031197103    -0.000366280
   9    N       -0.667399856     3.707711341     0.000789065
  10    O       -1.886621651     3.761288458     0.001123682
  11    O        0.040756919     4.700877926     0.000717152
  12    H       -0.546416379    -0.951993374    -0.000105202
  13    H        1.938000786    -0.945701159    -0.000108932
  14    H        3.179376961     1.214247520    -0.000085810
  15    H        1.933952235     3.360860914     0.000202916
  16    H       -2.840128592     1.968406787     0.000636324


           Empirical Formula: C7 H5 N O3  =    16 atoms



      MOLECULAR POINT GROUP   :   Cs  


                  EIGENVALUES  
 -37.56613 -31.95159 -31.37154 -30.94101 -27.98620 -27.19990 -25.12930 -23.43606
 -21.82969 -21.08144 -19.20583 -18.23391 -17.63532 -17.43417 -16.72122 -15.86904
 -15.52607 -15.07974 -14.91604 -13.94611 -13.72968 -13.16527 -11.67641 -11.65430
 -11.47995 -11.07021 -10.91144 -10.60915  -1.82555  -1.07491   0.11461   0.31689
   0.51239   1.59322   2.56014   2.94601   3.41796   3.70085   3.82236   3.90622
   3.94309   4.48899   4.60852   4.75483   4.86487   5.11145   5.15912   5.19587
   5.36439


              NET ATOMIC CHARGES AND DIPOLE CONTRIBUTIONS

  ATOM NO.   TYPE          CHARGE      No. of ELECS.   s-Pop       p-Pop       
    1          C          -0.102625        4.1026     1.09350     3.00913
    2          C          -0.120178        4.1202     1.09100     3.02917
    3          C          -0.132544        4.1325     1.08713     3.04541
    4          C          -0.109869        4.1099     1.09253     3.01734
    5          C          -0.043973        4.0440     1.07989     2.96408
    6          C          -0.114241        4.1142     1.08952     3.02472
    7          C           0.337254        3.6627     1.14865     2.51409
    8          O          -0.412686        6.4127     1.87925     4.53344
    9          N           0.618287        4.3817     1.45400     2.92771
   10          O          -0.410015        6.4100     1.94082     4.46920
   11          O          -0.379561        6.3796     1.94186     4.43771
   12          H           0.187546        0.8125     0.81245
   13          H           0.162981        0.8370     0.83702
   14          H           0.165339        0.8347     0.83466
   15          H           0.190191        0.8098     0.80981
   16          H           0.164095        0.8359     0.83590
 DIPOLE           X         Y         Z       TOTAL
 POINT-CHG.     4.062    -2.391    -0.000     4.714
 HYBRID        -0.060     0.157    -0.000     0.168
 SUM            4.003    -2.234    -0.000     4.584


          ATOMIC ORBITAL ELECTRON POPULATIONS

     Atom    s        px        py        pz   
    1  C   1.09350   1.00114   1.06577   0.94222
    2  C   1.09100   1.01192   1.06198   0.95527
    3  C   1.08713   1.08902   0.97886   0.97753
    4  C   1.09253   0.98535   1.07911   0.95289
    5  C   1.07989   0.97686   0.88768   1.09954
    6  C   1.08952   1.04246   0.97216   1.01010
    7  C   1.14865   0.90545   0.93148   0.67716
    8  O   1.87925   1.79200   1.39054   1.35090
    9  N   1.45400   0.97854   1.00531   0.94387
   10  O   1.94082   0.98967   1.92353   1.55600
   11  O   1.94186   1.59291   1.31025   1.53454
   12  H   0.81245
   13  H   0.83702
   14  H   0.83466
   15  H   0.80981
   16  H   0.83590

 **********************
 *                    *
 * JOB ENDED NORMALLY *
 *                    *
 **********************



 TOTAL JOB TIME:             0.36 SECONDS

 == MOPAC DONE ==
