 *******************************************************************************
 ** Site#: 32691        For non-commercial use only    Version 19.179W 32BITS **
 *******************************************************************************
 ** Cite this program as: MOPAC2016, Version: 19.179W, James J. P. Stewart,   **
 ** Stewart Computational Chemistry, web: HTTP://OpenMOPAC.net. Days left: 339**
 *******************************************************************************
 **                                                                           **
 **                                MOPAC2016                                  **
 **                                                                           **
 *******************************************************************************

                              PM7 CALCULATION RESULTS

 *******************************************************************************
 *  CALCULATION DONE:                                Wed Jul 24 16:17:27 2019  *
 *  T=         - A TIME OF 172800.0 SECONDS REQUESTED
 *  DUMP=N     - RESTART FILE WRITTEN EVERY  7200.000 SECONDS
 *******************************************************************************

 2-nitrophenol other orientation.mop

  ATOM    CHEMICAL      BOND LENGTH      BOND ANGLE     TWIST ANGLE 
 NUMBER    SYMBOL       (ANGSTROMS)      (DEGREES)       (DEGREES) 
   (I)                     NA:I           NB:NA:I       NC:NB:NA:I       NA    NB    NC 
     1       C          0.00000000       0.0000000       0.0000000        0     0     0
     2       C          1.34116200  *    0.0000000       0.0000000        1     0     0
     3       C          1.35078300  *  122.3046160  *    0.0000000        2     1     0
     4       C          1.35588600  *  117.9826340  *    0.4983750  *     3     2     1
     5       C          1.34628200  *  119.0588740  *   -0.7417010  *     4     3     2
     6       C          1.33802900  *  119.4874880  *    0.1185740  *     1     2     3
     7       N          1.26063000  *  119.0476890  * -178.8900080  *     3     2     1
     8       O          1.31247300  *  124.3976500  *  176.0136420  *     7     3     2
     9       O          1.31496600  *  123.0630150  *    0.1779840  *     7     3     2
    10       O          1.36449100  *  123.6441200  *  178.5580300  *     4     3     2
    11       H          1.10308000  *  120.5363320  *  179.8132660  *     1     2     3
    12       H          1.10377800  *  115.9487320  * -179.4547670  *     2     1     6
    13       H          1.10362000  *  119.1586200  *  179.9428610  *     5     4     3
    14       H          1.10258800  *  120.5080780  *  179.9112200  *     6     1     2
    15       H          0.97093200  *  109.3775410  *  174.2182830  *    10     4     3
 


          CARTESIAN COORDINATES 

    NO.       ATOM           X           Y           Z

     1         C          0.0000      0.0000      0.0000
     2         C          1.3412      0.0000      0.0000
     3         C          2.0630      1.1417      0.0000
     4         C          1.3910      2.3193      0.0104
     5         C          0.0449      2.3040      0.0050
     6         C         -0.6586      1.1647     -0.0024
     7         N          3.3215      1.0702     -0.0213
     8         O          4.1219      2.1075     -0.0990
     9         O          3.9749     -0.0707     -0.0473
    10         O          2.0028      3.5386      0.0402
    11         H         -0.5605     -0.9501     -0.0031
    12         H          1.8241     -0.9925     -0.0074
    13         H         -0.5038      3.2616      0.0144
    14         H         -1.7610      1.1843     -0.0039
    15         H          1.3342      4.2368     -0.0499

 General Reference for PM7:
 "Optimization of Parameters for Semiempirical Methods VI: More Modifications to the 
 NDDO Approximations and Re-optimization of Parameters", J. J. P. Stewart, J. Mol. Mod., 1:32, 19 (2013)
 http://www.springerlink.com/openurl.asp?genre=article&id=doi:10.1007/s00894-012-1667-x

           Empirical Formula: C6 H5 N O3  =    15 atoms



      MOLECULAR POINT GROUP   :   Cs  


      RHF CALCULATION, NO. OF DOUBLY OCCUPIED LEVELS = 26


          Geometry optimization using EF

          DIAGONAL MATRIX USED AS START HESSIAN

 CYCLE:     1 TIME:   0.109 TIME LEFT:  2.00D  GRAD.:   564.345 HEAT:  28.65418
 CYCLE:     2 TIME:   0.078 TIME LEFT:  2.00D  GRAD.:   639.252 HEAT:  26.58406
 CYCLE:     3 TIME:   0.016 TIME LEFT:  2.00D  GRAD.:   244.202 HEAT: -10.51791
 CYCLE:     4 TIME:   0.016 TIME LEFT:  2.00D  GRAD.:   562.525 HEAT: -15.88944
 CYCLE:     5 TIME:   0.016 TIME LEFT:  2.00D  GRAD.:   303.954 HEAT: -18.51327
 CYCLE:     6 TIME:   0.000 TIME LEFT:  2.00D  GRAD.:    98.060 HEAT: -21.33482
 CYCLE:     7 TIME:   0.016 TIME LEFT:  2.00D  GRAD.:    32.128 HEAT: -22.44866
 CYCLE:     8 TIME:   0.031 TIME LEFT:  2.00D  GRAD.:    24.658 HEAT: -22.64350
 CYCLE:     9 TIME:   0.000 TIME LEFT:  2.00D  GRAD.:    13.009 HEAT: -22.77439
 CYCLE:    10 TIME:   0.016 TIME LEFT:  2.00D  GRAD.:     4.548 HEAT: -22.82489
 CYCLE:    11 TIME:   0.016 TIME LEFT:  2.00D  GRAD.:     4.659 HEAT: -22.84886
 CYCLE:    12 TIME:   0.016 TIME LEFT:  2.00D  GRAD.:     8.424 HEAT: -22.85070
 CYCLE:    13 TIME:   0.016 TIME LEFT:  2.00D  GRAD.:     2.176 HEAT: -22.86822
 CYCLE:    14 TIME:   0.000 TIME LEFT:  2.00D  GRAD.:     0.890 HEAT: -22.87132

     GRADIENT =  0.89036 IS LESS THAN CUTOFF =  1.00000



 -------------------------------------------------------------------------------

 2-nitrophenol other orientation.mop



     GEOMETRY OPTIMISED USING EIGENVECTOR FOLLOWING (EF).     
     SCF FIELD WAS ACHIEVED                                   


                              PM7 CALCULATION
                                                       MOPAC2016 (Version: 19.179W)
                                                       Wed Jul 24 16:17:28 2019
                                                       No. of days remaining = 339




          FINAL HEAT OF FORMATION =        -22.87133 KCAL/MOL =     -95.69364 KJ/MOL


          TOTAL ENERGY            =      -1873.28972 EV
          ELECTRONIC ENERGY       =      -8240.07539 EV  POINT GROUP:     Cs  
          CORE-CORE REPULSION     =       6366.78567 EV
          COSMO AREA              =        154.78 SQUARE ANGSTROMS
          COSMO VOLUME            =        148.73 CUBIC ANGSTROMS

          GRADIENT NORM           =          0.89036 = 0.22989 PER ATOM
          IONIZATION POTENTIAL    =         10.029046 EV
          HOMO LUMO ENERGIES (EV) =        -10.029 -1.234
          NO. OF FILLED LEVELS    =         26
          MOLECULAR WEIGHT        =        139.1104

          MOLECULAR DIMENSIONS (Angstroms)

            Atom       Atom       Distance
            H    14    O     8     6.05795
            H    15    H    12     5.31427
            O    10    H    11     0.06266


          SCF CALCULATIONS        =         17
 
          WALL-CLOCK TIME         =          1.043 SECONDS
          COMPUTATION TIME        =          0.546 SECONDS




  ATOM    CHEMICAL      BOND LENGTH      BOND ANGLE     TWIST ANGLE 
 NUMBER    SYMBOL       (ANGSTROMS)      (DEGREES)       (DEGREES) 
   (I)                     NA:I           NB:NA:I       NC:NB:NA:I       NA    NB    NC 
     1       C          0.00000000       0.0000000       0.0000000        0     0     0
     2       C          1.38617732  *    0.0000000       0.0000000        1     0     0
     3       C          1.40430255  *  120.3375819  *    0.0000000        2     1     0
     4       C          1.40643885  *  118.8807194  *    0.4602070  *     3     2     1
     5       C          1.40355256  *  120.7832001  *   -0.6237252  *     4     3     2
     6       C          1.40005106  *  120.1994053  *   -0.1005612  *     1     2     3
     7       N          1.44694019  *  118.5914961  * -179.6713598  *     3     2     1
     8       O          1.21579388  *  119.7833461  *  178.0218643  *     7     3     2
     9       O          1.22560136  *  117.0108043  *   -1.8211218  *     7     3     2
    10       O          1.34418205  *  117.3241437  *  179.2552290  *     4     3     2
    11       H          1.08850366  *  120.0887934  *  179.8768469  *     1     2     3
    12       H          1.09807558  *  120.5106978  * -179.9688826  *     2     1     6
    13       H          1.08602693  *  120.1447367  * -179.7136676  *     5     4     3
    14       H          1.09206465  *  119.5093553  *  179.8679025  *     6     1     2
    15       H          0.99581510  *  112.3529916  *  176.7736224  *    10     4     3

                             CARTESIAN COORDINATES

   1    C        0.000000000     0.000000000     0.000000000
   2    C        1.386177318     0.000000000     0.000000000
   3    C        2.095481884     1.212003579     0.000000000
   4    C        1.375745108     2.420288052     0.009891586
   5    C       -0.027803342     2.420394909     0.006495330
   6    C       -0.704241053     1.210034302     0.002123763
   7    N        3.541732187     1.167925536    -0.007287314
   8    O        4.177315327     2.203710976    -0.043856999
   9    O        4.064994386     0.060017547     0.021613233
  10    O        2.085965980     3.561418972     0.025120862
  11    H       -0.545712067    -0.941825065    -0.002024388
  12    H        1.943669448    -0.946027372    -0.002174188
  13    H       -0.573128390     3.359578546     0.009524528
  14    H       -1.796224318     1.196887318    -0.000090488
  15    H        1.505603882     4.369344853    -0.020522564


           Empirical Formula: C6 H5 N O3  =    15 atoms



      MOLECULAR POINT GROUP   :   Cs  


                  EIGENVALUES  
 -36.95085 -31.90612 -31.03446 -30.19880 -27.52034 -26.30383 -24.61796 -22.35594
 -21.27755 -19.37147 -18.39686 -17.72028 -17.11057 -16.67422 -16.16302 -15.50388
 -15.12148 -14.58715 -13.37569 -13.18105 -13.04250 -11.02099 -10.96912 -10.92942
 -10.80654 -10.02905  -1.23446  -0.55093   0.59135   0.88955   1.66838   1.70627
   2.96543   3.29256   3.83295   3.96181   4.07246   4.53721   4.69399   4.91038
   5.07719   5.21251   5.30656   5.45228   5.54318


              NET ATOMIC CHARGES AND DIPOLE CONTRIBUTIONS

  ATOM NO.   TYPE          CHARGE      No. of ELECS.   s-Pop       p-Pop       
    1          C          -0.248205        4.2482     1.07638     3.17182
    2          C          -0.010741        4.0107     1.09571     2.91503
    3          C          -0.198783        4.1988     1.06494     3.13384
    4          C           0.339251        3.6607     1.08266     2.57809
    5          C          -0.335251        4.3353     1.07640     3.25885
    6          C          -0.010461        4.0105     1.09157     2.91889
    7          N           0.646119        4.3539     1.44201     2.91187
    8          O          -0.361070        6.3611     1.94098     4.42009
    9          O          -0.432477        6.4325     1.94248     4.49000
   10          O          -0.395287        6.3953     1.84162     4.55366
   11          H           0.168108        0.8319     0.83189
   12          H           0.188107        0.8119     0.81189
   13          H           0.169768        0.8302     0.83023
   14          H           0.153645        0.8464     0.84636
   15          H           0.327277        0.6727     0.67272
 DIPOLE           X         Y         Z       TOTAL
 POINT-CHG.    -6.519     0.621    -0.062     6.549
 HYBRID         0.368     0.650    -0.000     0.747
 SUM           -6.150     1.271    -0.062     6.281


          ATOMIC ORBITAL ELECTRON POPULATIONS

     Atom    s        px        py        pz   
    1  C   1.07638   1.01055   1.06725   1.09402
    2  C   1.09571   1.00030   1.04318   0.87156
    3  C   1.06494   0.89233   0.99703   1.24448
    4  C   1.08266   0.91164   0.82897   0.83747
    5  C   1.07640   1.00634   1.08459   1.16793
    6  C   1.09157   1.07774   0.96904   0.87210
    7  N   1.44201   0.99653   0.97285   0.94250
    8  O   1.94098   1.67237   1.21966   1.52806
    9  O   1.94248   1.76270   1.15112   1.57618
   10  O   1.84162   1.42922   1.26095   1.86349
   11  H   0.83189
   12  H   0.81189
   13  H   0.83023
   14  H   0.84636
   15  H   0.67272

 **********************
 *                    *
 * JOB ENDED NORMALLY *
 *                    *
 **********************



 TOTAL JOB TIME:             1.04 SECONDS

 == MOPAC DONE ==
