 *******************************************************************************
 ** Site#: 32691        For non-commercial use only    Version 19.179W 32BITS **
 *******************************************************************************
 ** Cite this program as: MOPAC2016, Version: 19.179W, James J. P. Stewart,   **
 ** Stewart Computational Chemistry, web: HTTP://OpenMOPAC.net. Days left: 339**
 *******************************************************************************
 **                                                                           **
 **                                MOPAC2016                                  **
 **                                                                           **
 *******************************************************************************

                              PM7 CALCULATION RESULTS

 *******************************************************************************
 *  CALCULATION DONE:                                Wed Jul 24 16:10:24 2019  *
 *  T=         - A TIME OF 172800.0 SECONDS REQUESTED
 *  DUMP=N     - RESTART FILE WRITTEN EVERY  7200.000 SECONDS
 *******************************************************************************

 2-nitrobenzaldehyde-orientation 2.mop

  ATOM    CHEMICAL      BOND LENGTH      BOND ANGLE     TWIST ANGLE 
 NUMBER    SYMBOL       (ANGSTROMS)      (DEGREES)       (DEGREES) 
   (I)                     NA:I           NB:NA:I       NC:NB:NA:I       NA    NB    NC 
     1       C          0.00000000       0.0000000       0.0000000        0     0     0
     2       C          1.33881000  *    0.0000000       0.0000000        1     0     0
     3       C          1.35663500  *  124.0503280  *    0.0000000        2     1     0
     4       C          1.36135600  *  117.3088900  *    0.0138240  *     3     2     1
     5       C          1.35574800  *  117.6546440  *   -0.0220610  *     4     3     2
     6       C          1.33393000  *  118.5457770  *    0.0033720  *     1     2     3
     7       C          1.37066900  *  113.6611220  * -179.9721190  *     3     2     1
     8       N          1.25919000  *  127.3827670  *  179.9564120  *     4     3     2
     9       O          1.21313500  *  141.2363510  *  179.9512490  *     7     3     2
    10       O          1.30496400  *  126.1186470  *   -0.0359490  *     8     4     3
    11       O          1.31504600  *  122.8064460  * -179.9920340  *     8     4     3
    12       H          1.10305200  *  121.1853590  *  179.9951400  *     1     2     3
    13       H          1.10547400  *  113.3491970  * -179.9884890  *     2     1     6
    14       H          1.10432100  *  122.7729520  * -179.9944870  *     5     4     3
    15       H          1.10305100  *  120.2763150  *  179.9993210  *     6     1     2
    16       H          1.12215700  *  111.2166270  *   -0.0365660  *     7     3     2
 


          CARTESIAN COORDINATES 

    NO.       ATOM           X           Y           Z

     1         C          0.0000      0.0000      0.0000
     2         C          1.3388      0.0000      0.0000
     3         C          2.0984      1.1240      0.0000
     4         C          1.4459      2.3188      0.0003
     5         C          0.0904      2.2955      0.0001
     6         C         -0.6374      1.1718     -0.0001
     7         C          3.4466      0.8769     -0.0006
     8         N          1.9576      3.4694      0.0011
     9         O          4.5140      1.4534     -0.0015
    10         O          3.2334      3.7438      0.0025
    11         O          1.2372      4.5695      0.0015
    12         H         -0.5712     -0.9437     -0.0001
    13         H          1.7769     -1.0149     -0.0001
    14         H         -0.5233      3.2136      0.0002
    15         H         -1.7400      1.2051     -0.0001
    16         H          3.6574     -0.2253     -0.0003

 General Reference for PM7:
 "Optimization of Parameters for Semiempirical Methods VI: More Modifications to the 
 NDDO Approximations and Re-optimization of Parameters", J. J. P. Stewart, J. Mol. Mod., 1:32, 19 (2013)
 http://www.springerlink.com/openurl.asp?genre=article&id=doi:10.1007/s00894-012-1667-x

           Empirical Formula: C7 H5 N O3  =    16 atoms



      MOLECULAR POINT GROUP   :   Cs  


      RHF CALCULATION, NO. OF DOUBLY OCCUPIED LEVELS = 28


          Geometry optimization using EF

          DIAGONAL MATRIX USED AS START HESSIAN

 CYCLE:     1 TIME:   0.031 TIME LEFT:  2.00D  GRAD.:   607.685 HEAT:  66.91005
 CYCLE:     2 TIME:   0.031 TIME LEFT:  2.00D  GRAD.:   615.231 HEAT:  59.50870
 CYCLE:     3 TIME:   0.031 TIME LEFT:  2.00D  GRAD.:   264.055 HEAT:  22.22778
 CYCLE:     4 TIME:   0.031 TIME LEFT:  2.00D  GRAD.:   612.459 HEAT:  12.15719
 CYCLE:     5 TIME:   0.016 TIME LEFT:  2.00D  GRAD.:   350.421 HEAT:  9.129912
 CYCLE:     6 TIME:   0.000 TIME LEFT:  2.00D  GRAD.:   137.155 HEAT:  4.216236
 CYCLE:     7 TIME:   0.031 TIME LEFT:  2.00D  GRAD.:    58.708 HEAT:  2.351233
 CYCLE:     8 TIME:   0.012 TIME LEFT:  2.00D  GRAD.:    37.341 HEAT:  2.195887
 CYCLE:     9 TIME:   0.000 TIME LEFT:  2.00D  GRAD.:    24.813 HEAT:  1.870774
 CYCLE:    10 TIME:   0.020 TIME LEFT:  2.00D  GRAD.:    26.917 HEAT:  1.855878
 CYCLE:    11 TIME:   0.016 TIME LEFT:  2.00D  GRAD.:    20.035 HEAT:  1.679856
 CYCLE:    12 TIME:   0.000 TIME LEFT:  2.00D  GRAD.:     9.195 HEAT:  1.600206
 CYCLE:    13 TIME:   0.012 TIME LEFT:  2.00D  GRAD.:     4.890 HEAT:  1.572181
 CYCLE:    14 TIME:   0.031 TIME LEFT:  2.00D  GRAD.:     2.793 HEAT:  1.561142
 CYCLE:    15 TIME:   0.020 TIME LEFT:  2.00D  GRAD.:     0.777 HEAT:  1.557196

     GRADIENT =  0.77711 IS LESS THAN CUTOFF =  1.00000



 -------------------------------------------------------------------------------

 2-nitrobenzaldehyde-orientation 2.mop



     GEOMETRY OPTIMISED USING EIGENVECTOR FOLLOWING (EF).     
     SCF FIELD WAS ACHIEVED                                   


                              PM7 CALCULATION
                                                       MOPAC2016 (Version: 19.179W)
                                                       Wed Jul 24 16:10:24 2019
                                                       No. of days remaining = 339




          FINAL HEAT OF FORMATION =          1.55719 KCAL/MOL =       6.51529 KJ/MOL


          TOTAL ENERGY            =      -1995.31376 EV
          ELECTRONIC ENERGY       =      -9160.25813 EV  POINT GROUP:     Cs  
          CORE-CORE REPULSION     =       7164.94437 EV
          COSMO AREA              =        165.48 SQUARE ANGSTROMS
          COSMO VOLUME            =        162.72 CUBIC ANGSTROMS

          GRADIENT NORM           =          0.77711 = 0.19428 PER ATOM
          IONIZATION POTENTIAL    =         10.357939 EV
          HOMO LUMO ENERGIES (EV) =        -10.358 -1.638
          NO. OF FILLED LEVELS    =         28
          MOLECULAR WEIGHT        =        151.1214

          MOLECULAR DIMENSIONS (Angstroms)

            Atom       Atom       Distance
            H    15    O     9     6.26716
            H    13    O    11     5.68264
            O     9    O    10     0.00960


          SCF CALCULATIONS        =         17
 
          WALL-CLOCK TIME         =          0.344 SECONDS
          COMPUTATION TIME        =          0.530 SECONDS




  ATOM    CHEMICAL      BOND LENGTH      BOND ANGLE     TWIST ANGLE 
 NUMBER    SYMBOL       (ANGSTROMS)      (DEGREES)       (DEGREES) 
   (I)                     NA:I           NB:NA:I       NC:NB:NA:I       NA    NB    NC 
     1       C          0.00000000       0.0000000       0.0000000        0     0     0
     2       C          1.39000440  *    0.0000000       0.0000000        1     0     0
     3       C          1.40375899  *  121.8080074  *    0.0000000        2     1     0
     4       C          1.39849427  *  117.8206140  *    0.0149900  *     3     2     1
     5       C          1.40392151  *  120.5258453  *   -0.0294559  *     4     3     2
     6       C          1.39307070  *  119.7426759  *    0.0134639  *     1     2     3
     7       C          1.49700714  *  113.3828195  * -179.9499937  *     3     2     1
     8       N          1.46926598  *  124.9240019  *  179.8901452  *     4     3     2
     9       O          1.19948337  *  126.4177765  *  179.8692387  *     7     3     2
    10       O          1.20940637  *  120.9475651  *   -0.1238886  *     8     4     3
    11       O          1.22782651  *  116.1592379  *  179.9117616  *     8     4     3
    12       H          1.09044699  *  120.1220998  * -179.9897543  *     1     2     3
    13       H          1.09312060  *  118.6322323  * -179.9885305  *     2     1     6
    14       H          1.09894550  *  119.8469081  * -179.9899089  *     5     4     3
    15       H          1.09048725  *  120.3604700  *  179.9882608  *     6     1     2
    16       H          1.10408193  *  114.1865819  *   -0.0861030  *     7     3     2

                             CARTESIAN COORDINATES

   1    C        0.000000000     0.000000000     0.000000000
   2    C        1.390004398     0.000000000     0.000000000
   3    C        2.129890059     1.192941116     0.000000000
   4    C        1.422807416     2.399514880     0.000323589
   5    C        0.018891039     2.403299925     0.000014526
   6    C       -0.691110060     1.209550647    -0.000284232
   7    C        3.610741075     0.973603035    -0.001199248
   8    N        2.036871520     3.734304090     0.002680869
   9    O        4.456573994     1.824085891    -0.003638241
  10    O        3.239099069     3.865817591     0.006790707
  11    O        1.261913999     4.686667319     0.000928547
  12    H       -0.547234714    -0.943190738     0.000168663
  13    H        1.913812158    -0.959446758     0.000033398
  14    H       -0.525465038     3.357950477     0.000106014
  15    H       -1.781533900     1.221308607    -0.000479782
  16    H        3.910645909    -0.088966187    -0.000396945


           Empirical Formula: C7 H5 N O3  =    16 atoms



      MOLECULAR POINT GROUP   :   Cs  


                  EIGENVALUES  
 -37.18204 -31.82360 -31.50047 -30.53472 -27.66221 -27.59367 -24.93045 -23.30279
 -21.99885 -20.69642 -18.93624 -17.79253 -17.42327 -17.23598 -16.57762 -16.13014
 -15.43470 -15.01889 -14.87577 -13.91119 -13.55006 -13.26275 -11.15279 -11.15150
 -11.06037 -10.97843 -10.89905 -10.35794  -1.63763  -1.06760   0.41686   0.56484
   0.64061   1.66006   2.59802   3.03411   3.45678   3.77229   3.81558   3.91996
   4.22921   4.49787   4.69365   4.76790   4.85604   5.05153   5.13704   5.22056
   5.35407


              NET ATOMIC CHARGES AND DIPOLE CONTRIBUTIONS

  ATOM NO.   TYPE          CHARGE      No. of ELECS.   s-Pop       p-Pop       
    1          C          -0.117344        4.1173     1.08852     3.02882
    2          C          -0.143709        4.1437     1.08830     3.05541
    3          C          -0.105664        4.1057     1.08920     3.01646
    4          C          -0.015496        4.0155     1.08414     2.93136
    5          C          -0.111724        4.1117     1.09499     3.01673
    6          C          -0.133706        4.1337     1.08683     3.04688
    7          C           0.304386        3.6956     1.13731     2.55830
    8          N           0.593954        4.4060     1.45691     2.94913
    9          O          -0.333850        6.3339     1.87913     4.45472
   10          O          -0.305100        6.3051     1.94058     4.36452
   11          O          -0.429224        6.4292     1.94324     4.48599
   12          H           0.159346        0.8407     0.84065
   13          H           0.160847        0.8392     0.83915
   14          H           0.197243        0.8028     0.80276
   15          H           0.164944        0.8351     0.83506
   16          H           0.115098        0.8849     0.88490
 DIPOLE           X         Y         Z       TOTAL
 POINT-CHG.    -3.805    -6.389    -0.000     7.437
 HYBRID         0.148     0.504    -0.000     0.525
 SUM           -3.657    -5.886    -0.000     6.929


          ATOMIC ORBITAL ELECTRON POPULATIONS

     Atom    s        px        py        pz   
    1  C   1.08852   1.00746   1.06292   0.95844
    2  C   1.08830   1.01260   1.05197   0.99084
    3  C   1.08920   1.03578   0.97305   1.00764
    4  C   1.08414   0.97321   0.89280   1.06534
    5  C   1.09499   0.98791   1.08085   0.94798
    6  C   1.08683   1.08866   0.98045   0.97777
    7  C   1.13731   0.86904   0.96852   0.72074
    8  N   1.45691   0.98703   1.00269   0.95942
    9  O   1.87913   1.55151   1.59693   1.30628
   10  O   1.94058   0.96797   1.90522   1.49132
   11  O   1.94324   1.54790   1.36386   1.57423
   12  H   0.84065
   13  H   0.83915
   14  H   0.80276
   15  H   0.83506
   16  H   0.88490

 **********************
 *                    *
 * JOB ENDED NORMALLY *
 *                    *
 **********************



 TOTAL JOB TIME:             0.34 SECONDS

 == MOPAC DONE ==
