 *******************************************************************************
 ** Site#: 32691        For non-commercial use only    Version 19.179W 32BITS **
 *******************************************************************************
 ** Cite this program as: MOPAC2016, Version: 19.179W, James J. P. Stewart,   **
 ** Stewart Computational Chemistry, web: HTTP://OpenMOPAC.net. Days left: 339**
 *******************************************************************************
 **                                                                           **
 **                                MOPAC2016                                  **
 **                                                                           **
 *******************************************************************************

                              PM7 CALCULATION RESULTS

 *******************************************************************************
 *  CALCULATION DONE:                                Wed Jul 24 16:21:11 2019  *
 *  T=         - A TIME OF 172800.0 SECONDS REQUESTED
 *  DUMP=N     - RESTART FILE WRITTEN EVERY  7200.000 SECONDS
 *******************************************************************************

 2-nitrophenol-4.mop

  ATOM    CHEMICAL      BOND LENGTH      BOND ANGLE     TWIST ANGLE 
 NUMBER    SYMBOL       (ANGSTROMS)      (DEGREES)       (DEGREES) 
   (I)                     NA:I           NB:NA:I       NC:NB:NA:I       NA    NB    NC 
     1       C          0.00000000       0.0000000       0.0000000        0     0     0
     2       C          1.33953900  *    0.0000000       0.0000000        1     0     0
     3       C          1.34720000  *  122.6144050  *    0.0000000        2     1     0
     4       C          1.35550100  *  118.1772890  *    0.9739590  *     3     2     1
     5       C          1.34947000  *  118.9441000  *   -0.6722020  *     4     3     2
     6       C          1.33820000  *  118.9992150  *   -0.7246450  *     1     2     3
     7       O          1.36879000  *  117.4670460  *  178.2044000  *     3     2     1
     8       N          1.25784300  *  121.7489110  * -179.4635410  *     4     3     2
     9       O          1.31361900  *  124.5724960  *  179.5576900  *     8     4     3
    10       O          1.31051100  *  121.2138140  *    1.9162420  *     8     4     3
    11       H          1.10265800  *  120.5927000  *  179.8218950  *     1     2     3
    12       H          1.10380400  *  118.3832010  *  178.9822890  *     2     1     6
    13       H          1.10367100  *  121.6113460  * -179.4995990  *     5     4     3
    14       H          1.10298400  *  120.0937430  * -179.7937950  *     6     1     2
    15       H          0.96617900  *  115.5159370  * -165.6141670  *     7     3     2
 


          CARTESIAN COORDINATES 

    NO.       ATOM           X           Y           Z

     1         C          0.0000      0.0000      0.0000
     2         C          1.3395      0.0000      0.0000
     3         C          2.0657      1.1348      0.0000
     4         C          1.4043      2.3178      0.0203
     5         C          0.0549      2.3117      0.0257
     6         C         -0.6488      1.1703      0.0148
     7         O          3.4284      1.0123      0.0381
     8         N          2.0148      3.4176      0.0116
     9         O          1.4310      4.5943      0.0218
    10         O          3.3226      3.4678     -0.0550
    11         H         -0.5612     -0.9492     -0.0030
    12         H          1.8643     -0.9711      0.0050
    13         H         -0.5278      3.2489      0.0338
    14         H         -1.7515      1.1914      0.0185
    15         H          3.9130      1.8198      0.2539

 General Reference for PM7:
 "Optimization of Parameters for Semiempirical Methods VI: More Modifications to the 
 NDDO Approximations and Re-optimization of Parameters", J. J. P. Stewart, J. Mol. Mod., 1:32, 19 (2013)
 http://www.springerlink.com/openurl.asp?genre=article&id=doi:10.1007/s00894-012-1667-x

           Empirical Formula: C6 H5 N O3  =    15 atoms



      MOLECULAR POINT GROUP   :   C1  


      RHF CALCULATION, NO. OF DOUBLY OCCUPIED LEVELS = 26


          Geometry optimization using EF

          DIAGONAL MATRIX USED AS START HESSIAN

 CYCLE:     1 TIME:   0.016 TIME LEFT:  2.00D  GRAD.:   548.327 HEAT:  19.92897
 CYCLE:     2 TIME:   0.078 TIME LEFT:  2.00D  GRAD.:   631.679 HEAT:  14.93465
 CYCLE:     3 TIME:   0.062 TIME LEFT:  2.00D  GRAD.:   186.746 HEAT: -20.45278
 CYCLE:     4 TIME:   0.031 TIME LEFT:  2.00D  GRAD.:   298.598 HEAT: -26.76474
 CYCLE:     5 TIME:   0.016 TIME LEFT:  2.00D  GRAD.:   255.637 HEAT: -27.57194
 CYCLE:     6 TIME:   0.047 TIME LEFT:  2.00D  GRAD.:    54.174 HEAT: -29.70097
 CYCLE:     7 TIME:   0.047 TIME LEFT:  2.00D  GRAD.:    49.181 HEAT: -30.34474
 CYCLE:     8 TIME:   0.016 TIME LEFT:  2.00D  GRAD.:    31.155 HEAT: -30.35814
 CYCLE:     9 TIME:   0.016 TIME LEFT:  2.00D  GRAD.:    19.433 HEAT: -30.72700
 CYCLE:    10 TIME:   0.016 TIME LEFT:  2.00D  GRAD.:     8.016 HEAT: -30.83877
 CYCLE:    11 TIME:   0.016 TIME LEFT:  2.00D  GRAD.:    13.520 HEAT: -30.89221
 CYCLE:    12 TIME:   0.000 TIME LEFT:  2.00D  GRAD.:     6.633 HEAT: -30.93704
 CYCLE:    13 TIME:   0.016 TIME LEFT:  2.00D  GRAD.:     2.620 HEAT: -30.95698
 CYCLE:    14 TIME:   0.016 TIME LEFT:  2.00D  GRAD.:     2.664 HEAT: -30.96454
 CYCLE:    15 TIME:   0.016 TIME LEFT:  2.00D  GRAD.:     1.857 HEAT: -30.97506
 CYCLE:    16 TIME:   0.000 TIME LEFT:  2.00D  GRAD.:     1.066 HEAT: -30.98222
 CYCLE:    17 TIME:   0.016 TIME LEFT:  2.00D  GRAD.:     1.073 HEAT: -30.98474
 CYCLE:    18 TIME:   0.016 TIME LEFT:  2.00D  GRAD.:     0.715 HEAT: -30.98616

     GRADIENT =  0.71467 IS LESS THAN CUTOFF =  1.00000



 -------------------------------------------------------------------------------

 2-nitrophenol-4.mop



     GEOMETRY OPTIMISED USING EIGENVECTOR FOLLOWING (EF).     
     SCF FIELD WAS ACHIEVED                                   


                              PM7 CALCULATION
                                                       MOPAC2016 (Version: 19.179W)
                                                       Wed Jul 24 16:21:11 2019
                                                       No. of days remaining = 339




          FINAL HEAT OF FORMATION =        -30.98617 KCAL/MOL =    -129.64613 KJ/MOL


          TOTAL ENERGY            =      -1873.55509 EV
          ELECTRONIC ENERGY       =      -8260.39261 EV  POINT GROUP:     Cs  
          CORE-CORE REPULSION     =       6386.83751 EV
          COSMO AREA              =        153.45 SQUARE ANGSTROMS
          COSMO VOLUME            =        147.54 CUBIC ANGSTROMS

          GRADIENT NORM           =          0.71467 = 0.18453 PER ATOM
          IONIZATION POTENTIAL    =          9.997518 EV
          HOMO LUMO ENERGIES (EV) =         -9.998 -1.449
          NO. OF FILLED LEVELS    =         26
          MOLECULAR WEIGHT        =        139.1104

          MOLECULAR DIMENSIONS (Angstroms)

            Atom       Atom       Distance
            H    11    O    10     6.02549
            H    13    H    12     4.69831
            C     6    H    15     0.01990


          SCF CALCULATIONS        =         21
 
          WALL-CLOCK TIME         =          0.496 SECONDS
          COMPUTATION TIME        =          0.655 SECONDS




  ATOM    CHEMICAL      BOND LENGTH      BOND ANGLE     TWIST ANGLE 
 NUMBER    SYMBOL       (ANGSTROMS)      (DEGREES)       (DEGREES) 
   (I)                     NA:I           NB:NA:I       NC:NB:NA:I       NA    NB    NC 
     1       C          0.00000000       0.0000000       0.0000000        0     0     0
     2       C          1.37987956  *    0.0000000       0.0000000        1     0     0
     3       C          1.41033741  *  119.1773041  *    0.0000000        2     1     0
     4       C          1.40949108  *  120.4332701  *    0.4770715  *     3     2     1
     5       C          1.41031939  *  119.1624979  *   -0.4843316  *     4     3     2
     6       C          1.40767411  *  120.8376637  *   -0.2132957  *     1     2     3
     7       O          1.33242403  *  115.6410344  * -179.5590224  *     3     2     1
     8       N          1.43273415  *  121.7197212  *  179.9247787  *     4     3     2
     9       O          1.21585067  *  119.4534593  *  179.3556397  *     8     4     3
    10       O          1.23673453  *  118.3691905  *   -0.6895662  *     8     4     3
    11       H          1.09247816  *  120.0022638  *  179.6775677  *     1     2     3
    12       H          1.08928199  *  122.0002698  * -179.9973415  *     2     1     6
    13       H          1.09631214  *  119.1438169  * -179.5611745  *     5     4     3
    14       H          1.08827398  *  119.4101774  *  179.8338007  *     6     1     2
    15       H          1.02177983  *  111.4764544  * -179.8773237  *     7     3     2

                             CARTESIAN COORDINATES

   1    C        0.000000000     0.000000000     0.000000000
   2    C        1.379879559     0.000000000     0.000000000
   3    C        2.067438565     1.231387112     0.000000000
   4    C        1.354449646     2.447203513     0.010118964
   5    C       -0.055547318     2.417049299     0.009836680
   6    C       -0.721584162     1.208653158     0.004499490
   7    O        3.397294533     1.149220046    -0.009245040
   8    N        2.024678219     3.713504154     0.011986756
   9    O        1.368636280     4.737170381     0.008942016
  10    O        3.261357279     3.723815978     0.017542102
  11    H       -0.546276460    -0.946077273    -0.005324112
  12    H        1.957115417    -0.923754235    -0.003481751
  13    H       -0.609806012     3.362933705     0.010375298
  14    H       -1.809516973     1.181554809     0.001648637
  15    H        3.829338457     2.075160255    -0.006638168


           Empirical Formula: C6 H5 N O3  =    15 atoms



      MOLECULAR POINT GROUP   :   Cs  


                  EIGENVALUES  
 -37.43682 -31.90777 -31.12727 -30.31545 -27.74570 -26.41515 -24.83807 -22.08299
 -21.83291 -19.49142 -18.45094 -17.84241 -17.56270 -17.08514 -16.06464 -15.44640
 -15.19292 -14.54979 -13.68747 -13.19246 -12.91297 -11.67364 -11.58566 -11.40556
 -11.02261  -9.99752  -1.44885  -0.48589   0.20178   0.50836   1.62514   1.79531
   2.77380   3.34397   3.70654   3.87192   4.16161   4.18714   4.65478   4.80212
   5.03340   5.21298   5.27056   5.50622   5.62183


              NET ATOMIC CHARGES AND DIPOLE CONTRIBUTIONS

  ATOM NO.   TYPE          CHARGE      No. of ELECS.   s-Pop       p-Pop       
    1          C          -0.011687        4.0117     1.09382     2.91787
    2          C          -0.282243        4.2822     1.07653     3.20572
    3          C           0.384139        3.6159     1.08443     2.53143
    4          C          -0.280253        4.2803     1.06266     3.21759
    5          C          -0.006015        4.0060     1.09230     2.91372
    6          C          -0.251863        4.2519     1.07571     3.17616
    7          O          -0.447494        6.4475     1.84280     4.60470
    8          N           0.662638        4.3374     1.44128     2.89609
    9          O          -0.362807        6.3628     1.94077     4.42204
   10          O          -0.475620        6.4756     1.94158     4.53404
   11          H           0.155547        0.8445     0.84445
   12          H           0.187659        0.8123     0.81234
   13          H           0.180906        0.8191     0.81909
   14          H           0.167803        0.8322     0.83220
   15          H           0.379290        0.6207     0.62071
 DIPOLE           X         Y         Z       TOTAL
 POINT-CHG.    -3.354    -3.852    -0.026     5.108
 HYBRID         0.777     0.682    -0.001     1.034
 SUM           -2.577    -3.170    -0.027     4.085


          ATOMIC ORBITAL ELECTRON POPULATIONS

     Atom    s        px        py        pz   
    1  C   1.09382   0.99568   1.05544   0.86675
    2  C   1.07653   1.01591   1.06050   1.12931
    3  C   1.08443   0.78959   0.94294   0.79890
    4  C   1.06266   1.00206   0.90303   1.31250
    5  C   1.09230   0.96664   1.06834   0.87873
    6  C   1.07571   1.09588   0.98132   1.09896
    7  O   1.84280   1.26393   1.49915   1.84161
    8  N   1.44128   0.96959   0.99817   0.92833
    9  O   1.94077   1.62911   1.26645   1.52647
   10  O   1.94158   1.00499   1.91068   1.61837
   11  H   0.84445
   12  H   0.81234
   13  H   0.81909
   14  H   0.83220
   15  H   0.62071

 **********************
 *                    *
 * JOB ENDED NORMALLY *
 *                    *
 **********************



 TOTAL JOB TIME:             0.50 SECONDS

 == MOPAC DONE ==
