 *******************************************************************************
 ** Site#: 32691        For non-commercial use only    Version 19.179W 32BITS **
 *******************************************************************************
 ** Cite this program as: MOPAC2016, Version: 19.179W, James J. P. Stewart,   **
 ** Stewart Computational Chemistry, web: HTTP://OpenMOPAC.net. Days left: 339**
 *******************************************************************************
 **                                                                           **
 **                                MOPAC2016                                  **
 **                                                                           **
 *******************************************************************************

                              PM7 CALCULATION RESULTS

 *******************************************************************************
 *  CALCULATION DONE:                                Wed Jul 24 16:21:08 2019  *
 *  T=         - A TIME OF 172800.0 SECONDS REQUESTED
 *  DUMP=N     - RESTART FILE WRITTEN EVERY  7200.000 SECONDS
 *******************************************************************************

 2-nitrophenol-3.mop

  ATOM    CHEMICAL      BOND LENGTH      BOND ANGLE     TWIST ANGLE 
 NUMBER    SYMBOL       (ANGSTROMS)      (DEGREES)       (DEGREES) 
   (I)                     NA:I           NB:NA:I       NC:NB:NA:I       NA    NB    NC 
     1       C          0.00000000       0.0000000       0.0000000        0     0     0
     2       C          1.35077900  *    0.0000000       0.0000000        1     0     0
     3       C          1.35592100  *  117.9832220  *    0.0000000        2     1     0
     4       C          1.34628200  *  119.0523690  *   -0.9010100  *     3     2     1
     5       C          1.33905000  *  122.3457030  *    0.5822930  *     4     3     2
     6       C          1.34115200  *  122.3090270  *    0.5802600  *     1     2     3
     7       O          1.36452000  *  123.6610650  *  178.9473530  *     3     2     1
     8       N          1.26063500  *  119.0389800  * -179.1616690  *     2     1     6
     9       O          1.31247200  *  124.3878590  *  176.2508430  *     8     2     1
    10       O          1.31497500  *  123.0676070  *    0.3969340  *     8     2     1
    11       H          1.10376800  *  121.7472160  * -179.7991300  *     1     2     3
    12       H          1.10361800  *  119.1577370  * -179.8091780  *     4     3     2
    13       H          1.10257200  *  120.6691710  *  179.8071080  *     5     4     3
    14       H          1.10308700  *  120.5350380  *  179.8163130  *     6     1     2
    15       H          0.97093500  *  109.3676700  *  173.3890970  *     7     3     2
 


          CARTESIAN COORDINATES 

    NO.       ATOM           X           Y           Z

     1         C          0.0000      0.0000      0.0000
     2         C          1.3508      0.0000      0.0000
     3         C          1.9870      1.1974      0.0000
     4         C          1.2546      2.3269     -0.0185
     5         C         -0.0844      2.3125     -0.0255
     6         C         -0.7168      1.1335     -0.0115
     7         O          3.3447      1.3325      0.0209
     8         N          1.9627     -1.1021     -0.0050
     9         O          3.2674     -1.2253     -0.0763
    10         O          1.3475     -2.2643     -0.0178
    11         H         -0.5808     -0.9386      0.0033
    12         H          1.7707      3.3024     -0.0217
    13         H         -0.6569      3.2547     -0.0375
    14         H         -1.8194      1.0993     -0.0142
    15         H          3.5768      2.2688     -0.0889

 General Reference for PM7:
 "Optimization of Parameters for Semiempirical Methods VI: More Modifications to the 
 NDDO Approximations and Re-optimization of Parameters", J. J. P. Stewart, J. Mol. Mod., 1:32, 19 (2013)
 http://www.springerlink.com/openurl.asp?genre=article&id=doi:10.1007/s00894-012-1667-x

           Empirical Formula: C6 H5 N O3  =    15 atoms



      MOLECULAR POINT GROUP   :   Cs  


      RHF CALCULATION, NO. OF DOUBLY OCCUPIED LEVELS = 26


          Geometry optimization using EF

          DIAGONAL MATRIX USED AS START HESSIAN

 CYCLE:     1 TIME:   0.031 TIME LEFT:  2.00D  GRAD.:   611.408 HEAT:  28.66502
 CYCLE:     2 TIME:   0.031 TIME LEFT:  2.00D  GRAD.:   610.669 HEAT:  26.95011
 CYCLE:     3 TIME:   0.047 TIME LEFT:  2.00D  GRAD.:   290.294 HEAT: -9.483123
 CYCLE:     4 TIME:   0.031 TIME LEFT:  2.00D  GRAD.:   636.485 HEAT: -12.30460
 CYCLE:     5 TIME:   0.016 TIME LEFT:  2.00D  GRAD.:   146.844 HEAT: -20.98380
 CYCLE:     6 TIME:   0.016 TIME LEFT:  2.00D  GRAD.:    72.730 HEAT: -21.98808
 CYCLE:     7 TIME:   0.012 TIME LEFT:  2.00D  GRAD.:    24.544 HEAT: -22.48188
 CYCLE:     8 TIME:   0.035 TIME LEFT:  2.00D  GRAD.:    32.603 HEAT: -22.64034
 CYCLE:     9 TIME:   0.016 TIME LEFT:  2.00D  GRAD.:     5.450 HEAT: -22.77855
 CYCLE:    10 TIME:   0.000 TIME LEFT:  2.00D  GRAD.:     3.896 HEAT: -22.81743
 CYCLE:    11 TIME:   0.016 TIME LEFT:  2.00D  GRAD.:     6.807 HEAT: -22.84367
 CYCLE:    12 TIME:   0.012 TIME LEFT:  2.00D  GRAD.:     7.022 HEAT: -22.84725
 CYCLE:    13 TIME:   0.020 TIME LEFT:  2.00D  GRAD.:     1.832 HEAT: -22.86305
 CYCLE:    14 TIME:   0.000 TIME LEFT:  2.00D  GRAD.:     0.931 HEAT: -22.86711

     GRADIENT =  0.93138 IS LESS THAN CUTOFF =  1.00000



 -------------------------------------------------------------------------------

 2-nitrophenol-3.mop



     GEOMETRY OPTIMISED USING EIGENVECTOR FOLLOWING (EF).     
     SCF FIELD WAS ACHIEVED                                   


                              PM7 CALCULATION
                                                       MOPAC2016 (Version: 19.179W)
                                                       Wed Jul 24 16:21:08 2019
                                                       No. of days remaining = 339




          FINAL HEAT OF FORMATION =        -22.86711 KCAL/MOL =     -95.67601 KJ/MOL


          TOTAL ENERGY            =      -1873.28954 EV
          ELECTRONIC ENERGY       =      -8240.04622 EV  POINT GROUP:     Cs  
          CORE-CORE REPULSION     =       6366.75669 EV
          COSMO AREA              =        154.65 SQUARE ANGSTROMS
          COSMO VOLUME            =        148.60 CUBIC ANGSTROMS

          GRADIENT NORM           =          0.93138 = 0.24048 PER ATOM
          IONIZATION POTENTIAL    =         10.028908 EV
          HOMO LUMO ENERGIES (EV) =        -10.029 -1.234
          NO. OF FILLED LEVELS    =         26
          MOLECULAR WEIGHT        =        139.1104

          MOLECULAR DIMENSIONS (Angstroms)

            Atom       Atom       Distance
            H    13    O     9     6.05821
            H    15    H    11     5.31436
            O     7    H    14     0.06660


          SCF CALCULATIONS        =         18
 
          WALL-CLOCK TIME         =          0.312 SECONDS
          COMPUTATION TIME        =          0.499 SECONDS




  ATOM    CHEMICAL      BOND LENGTH      BOND ANGLE     TWIST ANGLE 
 NUMBER    SYMBOL       (ANGSTROMS)      (DEGREES)       (DEGREES) 
   (I)                     NA:I           NB:NA:I       NC:NB:NA:I       NA    NB    NC 
     1       C          0.00000000       0.0000000       0.0000000        0     0     0
     2       C          1.40413125  *    0.0000000       0.0000000        1     0     0
     3       C          1.40643002  *  118.8678705  *    0.0000000        2     1     0
     4       C          1.40355082  *  120.7675173  *   -0.6745525  *     3     2     1
     5       C          1.38674165  *  119.2367553  *    0.4367773  *     4     3     2
     6       C          1.38630697  *  120.3531652  *    0.4677412  *     1     2     3
     7       O          1.34400702  *  117.3549756  *  179.2274350  *     3     2     1
     8       N          1.44694889  *  118.5985166  * -179.6537179  *     2     1     6
     9       O          1.21567891  *  119.7706574  *  178.2084542  *     8     2     1
    10       O          1.22551224  *  117.0305424  *   -1.6082116  *     8     2     1
    11       H          1.09809411  *  119.1574854  * -179.5916579  *     1     2     3
    12       H          1.08606006  *  120.1421909  * -179.6998729  *     4     3     2
    13       H          1.09211825  *  119.8346833  *  179.9306696  *     5     4     3
    14       H          1.08859121  *  120.0136182  *  179.8726418  *     6     1     2
    15       H          0.99571583  *  112.3946462  *  176.3481411  *     7     3     2

                             CARTESIAN COORDINATES

   1    C        0.000000000     0.000000000     0.000000000
   2    C        1.404131246     0.000000000     0.000000000
   3    C        2.083143533     1.231660556     0.000000000
   4    C        1.373720451     2.442640414    -0.014198119
   5    C       -0.012744412     2.415374444    -0.019113231
   6    C       -0.700540501     1.196241885    -0.009765886
   7    O        3.426587010     1.196228569     0.016095341
   8    N        2.096741009    -1.270411571     0.002693100
   9    O        3.311712657    -1.295596634    -0.030243641
  10    O        1.405257501    -2.281676247     0.035473758
  11    H       -0.535004409    -0.958923488     0.006834281
  12    H        1.908448656     3.387928389    -0.018978038
  13    H       -0.574562305     3.351849354    -0.028995792
  14    H       -1.789110590     1.189774986    -0.011808431
  15    H        3.830762533     2.104258469    -0.043686444


           Empirical Formula: C6 H5 N O3  =    15 atoms



      MOLECULAR POINT GROUP   :   Cs  


                  EIGENVALUES  
 -36.95372 -31.90669 -31.03538 -30.20102 -27.52154 -26.30270 -24.61902 -22.35493
 -21.27848 -19.37297 -18.39788 -17.72046 -17.11197 -16.67427 -16.16394 -15.50221
 -15.12345 -14.58446 -13.37403 -13.18311 -13.04152 -11.02178 -10.96913 -10.92968
 -10.80705 -10.02891  -1.23422  -0.55075   0.59194   0.88957   1.66815   1.70685
   2.96554   3.29421   3.83378   3.96303   4.07133   4.53767   4.69444   4.91125
   5.07778   5.21214   5.30726   5.45219   5.54284


              NET ATOMIC CHARGES AND DIPOLE CONTRIBUTIONS

  ATOM NO.   TYPE          CHARGE      No. of ELECS.   s-Pop       p-Pop       
    1          C          -0.010834        4.0108     1.09571     2.91512
    2          C          -0.198741        4.1987     1.06493     3.13381
    3          C           0.339446        3.6606     1.08258     2.57797
    4          C          -0.335444        4.3354     1.07644     3.25901
    5          C          -0.010372        4.0104     1.09158     2.91879
    6          C          -0.248172        4.2482     1.07634     3.17183
    7          O          -0.395579        6.3956     1.84142     4.55415
    8          N           0.646245        4.3538     1.44194     2.91181
    9          O          -0.361126        6.3611     1.94094     4.42018
   10          O          -0.432460        6.4325     1.94245     4.49001
   11          H           0.188087        0.8119     0.81191
   12          H           0.169727        0.8303     0.83027
   13          H           0.153685        0.8463     0.84631
   14          H           0.168111        0.8319     0.83189
   15          H           0.327428        0.6726     0.67257
 DIPOLE           X         Y         Z       TOTAL
 POINT-CHG.    -2.759     5.937    -0.117     6.548
 HYBRID         0.748     0.011    -0.002     0.748
 SUM           -2.011     5.947    -0.119     6.279


          ATOMIC ORBITAL ELECTRON POPULATIONS

     Atom    s        px        py        pz   
    1  C   1.09571   0.97210   1.07143   0.87160
    2  C   1.06493   0.98379   0.90561   1.24442
    3  C   1.08258   0.78870   0.95177   0.83750
    4  C   1.07644   1.03215   1.05886   1.16800
    5  C   1.09158   0.99191   1.05476   0.87213
    6  C   1.07634   1.09605   0.98180   1.09397
    7  O   1.84142   1.25924   1.43232   1.86260
    8  N   1.44194   0.97918   0.99015   0.94248
    9  O   1.94094   0.97200   1.92001   1.52818
   10  O   1.94245   1.61899   1.29499   1.57603
   11  H   0.81191
   12  H   0.83027
   13  H   0.84631
   14  H   0.83189
   15  H   0.67257

 **********************
 *                    *
 * JOB ENDED NORMALLY *
 *                    *
 **********************



 TOTAL JOB TIME:             0.31 SECONDS

 == MOPAC DONE ==
