 *******************************************************************************
 ** Site#: 32691        For non-commercial use only    Version 19.179W 32BITS **
 *******************************************************************************
 ** Cite this program as: MOPAC2016, Version: 19.179W, James J. P. Stewart,   **
 ** Stewart Computational Chemistry, web: HTTP://OpenMOPAC.net. Days left: 337**
 *******************************************************************************
 **                                                                           **
 **                                MOPAC2016                                  **
 **                                                                           **
 *******************************************************************************

                              PM7 CALCULATION RESULTS

 *******************************************************************************
 *  CALCULATION DONE:                                Fri Jul 26 14:23:46 2019  *
 *  T=         - A TIME OF 172800.0 SECONDS REQUESTED
 *  DUMP=N     - RESTART FILE WRITTEN EVERY  7200.000 SECONDS
 *******************************************************************************

 3-fluoro-4-nitrophenol2.mop

  ATOM    CHEMICAL      BOND LENGTH      BOND ANGLE     TWIST ANGLE 
 NUMBER    SYMBOL       (ANGSTROMS)      (DEGREES)       (DEGREES) 
   (I)                     NA:I           NB:NA:I       NC:NB:NA:I       NA    NB    NC 
     1       C          0.00000000       0.0000000       0.0000000        0     0     0
     2       C          1.34700800  *    0.0000000       0.0000000        1     0     0
     3       C          1.35653500  *  118.9534500  *    0.0000000        2     1     0
     4       C          1.35142300  *  117.0441510  *    0.1226590  *     3     2     1
     5       C          1.34047100  *  122.7771050  *   -0.1139740  *     4     3     2
     6       C          1.34083400  *  123.9878830  *   -0.0601070  *     1     2     3
     7       O          1.35989700  *  121.4075070  *  179.7120830  *     6     1     2
     8       N          1.25741100  *  125.2144620  * -179.8349510  *     3     2     1
     9       O          1.31422900  *  123.7455040  *  179.8971170  *     8     3     2
    10       O          1.30350800  *  123.3136990  *    0.0798180  *     8     3     2
    11       F          1.33268400  *  111.9116470  * -179.9817380  *     2     1     6
    12       H          1.10451700  *  118.8920010  *  179.8406160  *     1     2     3
    13       H          1.10405200  *  121.8800030  * -179.9917980  *     4     3     2
    14       H          1.10318600  *  120.1304130  * -179.8348380  *     5     4     3
    15       H          0.97089800  *  109.3373380  *   -0.2181140  *     7     6     1
 


          CARTESIAN COORDINATES 

    NO.       ATOM           X           Y           Z

     1         C          0.0000      0.0000      0.0000
     2         C          1.3470      0.0000      0.0000
     3         C          2.0037      1.1870      0.0000
     4         C          1.2480      2.3073      0.0026
     5         C         -0.0922      2.2787      0.0028
     6         C         -0.7495      1.1118      0.0012
     7         O         -2.1081      1.0506     -0.0047
     8         N          3.2536      1.3241     -0.0030
     9         O          3.8601      2.4900     -0.0048
    10         O          4.0840      0.3194     -0.0080
    11         F          1.8443     -1.2364     -0.0017
    12         H         -0.5337     -0.9670     -0.0027
    13         H          1.6991      3.3150      0.0026
    14         H         -0.6663      3.2207      0.0022
    15         H         -2.3880      0.1209     -0.0130

 General Reference for PM7:
 "Optimization of Parameters for Semiempirical Methods VI: More Modifications to the 
 NDDO Approximations and Re-optimization of Parameters", J. J. P. Stewart, J. Mol. Mod., 1:32, 19 (2013)
 http://www.springerlink.com/openurl.asp?genre=article&id=doi:10.1007/s00894-012-1667-x

           Empirical Formula: C6 H4 N O3 F  =    15 atoms



      MOLECULAR POINT GROUP   :   Cs  


      RHF CALCULATION, NO. OF DOUBLY OCCUPIED LEVELS = 29


          Geometry optimization using EF

          DIAGONAL MATRIX USED AS START HESSIAN

 CYCLE:     1 TIME:   0.016 TIME LEFT:  2.00D  GRAD.:   617.685 HEAT: -17.01629
 CYCLE:     2 TIME:   0.031 TIME LEFT:  2.00D  GRAD.:   601.815 HEAT: -20.17538
 CYCLE:     3 TIME:   0.016 TIME LEFT:  2.00D  GRAD.:   292.049 HEAT: -56.52866
 CYCLE:     4 TIME:   0.031 TIME LEFT:  2.00D  GRAD.:   667.451 HEAT: -59.85150
 CYCLE:     5 TIME:   0.000 TIME LEFT:  2.00D  GRAD.:   141.077 HEAT: -70.20416
 CYCLE:     6 TIME:   0.078 TIME LEFT:  2.00D  GRAD.:    69.185 HEAT: -71.59216
 CYCLE:     7 TIME:   0.031 TIME LEFT:  2.00D  GRAD.:    28.976 HEAT: -72.14876
 CYCLE:     8 TIME:   0.031 TIME LEFT:  2.00D  GRAD.:    23.669 HEAT: -72.32834
 CYCLE:     9 TIME:   0.016 TIME LEFT:  2.00D  GRAD.:     8.374 HEAT: -72.42268
 CYCLE:    10 TIME:   0.016 TIME LEFT:  2.00D  GRAD.:     8.056 HEAT: -72.45922
 CYCLE:    11 TIME:   0.016 TIME LEFT:  2.00D  GRAD.:     5.782 HEAT: -72.49687
 CYCLE:    12 TIME:   0.016 TIME LEFT:  2.00D  GRAD.:     2.301 HEAT: -72.50879
 CYCLE:    13 TIME:   0.016 TIME LEFT:  2.00D  GRAD.:     0.823 HEAT: -72.51072

     GRADIENT =  0.82311 IS LESS THAN CUTOFF =  1.00000



 -------------------------------------------------------------------------------

 3-fluoro-4-nitrophenol2.mop



     GEOMETRY OPTIMISED USING EIGENVECTOR FOLLOWING (EF).     
     SCF FIELD WAS ACHIEVED                                   


                              PM7 CALCULATION
                                                       MOPAC2016 (Version: 19.179W)
                                                       Fri Jul 26 14:23:47 2019
                                                       No. of days remaining = 337




          FINAL HEAT OF FORMATION =        -72.51072 KCAL/MOL =    -303.38484 KJ/MOL


          TOTAL ENERGY            =      -2325.62349 EV
          ELECTRONIC ENERGY       =      -9884.58803 EV  POINT GROUP:     Cs  
          CORE-CORE REPULSION     =       7558.96454 EV
          COSMO AREA              =        162.37 SQUARE ANGSTROMS
          COSMO VOLUME            =        157.15 CUBIC ANGSTROMS

          GRADIENT NORM           =          0.82311 = 0.21252 PER ATOM
          IONIZATION POTENTIAL    =         10.405789 EV
          HOMO LUMO ENERGIES (EV) =        -10.406 -1.432
          NO. OF FILLED LEVELS    =         29
          MOLECULAR WEIGHT        =        157.1009

          MOLECULAR DIMENSIONS (Angstroms)

            Atom       Atom       Distance
            H    15    O     9     6.83656
            H    14    F    11     5.04635
            H    13    O    10     0.00298


          SCF CALCULATIONS        =         18
 
          WALL-CLOCK TIME         =          0.328 SECONDS
          COMPUTATION TIME        =          0.515 SECONDS




  ATOM    CHEMICAL      BOND LENGTH      BOND ANGLE     TWIST ANGLE 
 NUMBER    SYMBOL       (ANGSTROMS)      (DEGREES)       (DEGREES) 
   (I)                     NA:I           NB:NA:I       NC:NB:NA:I       NA    NB    NC 
     1       C          0.00000000       0.0000000       0.0000000        0     0     0
     2       C          1.39211388  *    0.0000000       0.0000000        1     0     0
     3       C          1.40324197  *  121.7949511  *    0.0000000        2     1     0
     4       C          1.40763171  *  119.2525391  *    0.0274623  *     3     2     1
     5       C          1.38110306  *  120.3574564  *   -0.0730149  *     4     3     2
     6       C          1.39813033  *  117.2640944  *    0.0004770  *     1     2     3
     7       O          1.34550457  *  122.4701445  * -179.9911343  *     6     1     2
     8       N          1.44481861  *  121.3153213  * -179.9629596  *     3     2     1
     9       O          1.22212479  *  117.7264717  *  179.9844713  *     8     3     2
    10       O          1.21748941  *  118.3477793  *   -0.0190707  *     8     3     2
    11       F          1.31545566  *  118.5773858  * -179.9811525  *     2     1     6
    12       H          1.08648384  *  121.2038170  *  179.9722954  *     1     2     3
    13       H          1.09926218  *  118.9516814  *  179.9491327  *     4     3     2
    14       H          1.08967081  *  121.6971159  * -179.9397545  *     5     4     3
    15       H          0.99337404  *  113.0136331  *   -0.1193305  *     7     6     1

                             CARTESIAN COORDINATES

   1    C        0.000000000     0.000000000     0.000000000
   2    C        1.392113882     0.000000000     0.000000000
   3    C        2.131455275     1.192670252     0.000000000
   4    C        1.450042681     2.424377827     0.000588648
   5    C        0.069355153     2.458241163    -0.000359026
   6    C       -0.640473150     1.242804315    -0.000010347
   7    O       -1.980427262     1.364892364     0.000164287
   8    N        3.576223046     1.180575782    -0.000797971
   9    O        4.153853595     2.257577123    -0.001041711
  10    O        4.145324430     0.104284016    -0.001120634
  11    F        2.021355899    -1.155196061    -0.000370385
  12    H       -0.562889886    -0.929301843    -0.000449352
  13    H        2.034120935     3.355629245     0.001439846
  14    H       -0.480284509     3.399133518    -0.000904830
  15    H       -2.450147722     0.489591540    -0.001606021


           Empirical Formula: C6 H4 N O3 F  =    15 atoms



      MOLECULAR POINT GROUP   :   Cs  


                  EIGENVALUES  
 -42.16003 -37.22029 -32.25301 -31.26639 -30.58545 -27.45817 -27.05938 -24.61748
 -22.75067 -21.72808 -19.81200 -19.03941 -18.26492 -17.76465 -17.52584 -17.00296
 -16.92537 -16.05510 -15.89929 -15.52100 -15.20388 -14.17467 -13.38223 -13.29323
 -11.27709 -11.23854 -11.12624 -11.10090 -10.40579  -1.43196  -0.97098   0.33642
   0.66616   1.29191   1.37523   2.12261   2.67603   2.94991   3.32960   3.50773
   3.78142   4.19866   4.37158   4.59014   4.88572   5.03675   5.16861   5.39431


              NET ATOMIC CHARGES AND DIPOLE CONTRIBUTIONS

  ATOM NO.   TYPE          CHARGE      No. of ELECS.   s-Pop       p-Pop       
    1          C          -0.413716        4.4137     1.07283     3.34088
    2          C           0.330785        3.6692     1.09902     2.57019
    3          C          -0.244425        4.2444     1.06489     3.17954
    4          C           0.023745        3.9763     1.09453     2.88172
    5          C          -0.298348        4.2983     1.07373     3.22462
    6          C           0.380230        3.6198     1.08686     2.53291
    7          O          -0.442482        6.4425     1.83657     4.60591
    8          N           0.654170        4.3458     1.43912     2.90671
    9          O          -0.415232        6.4152     1.94195     4.47329
   10          O          -0.378341        6.3783     1.94137     4.43697
   11          F          -0.114896        7.1149     1.96648     5.14842
   12          H           0.193407        0.8066     0.80659
   13          H           0.192496        0.8075     0.80750
   14          H           0.193251        0.8067     0.80675
   15          H           0.339356        0.6606     0.66064
 DIPOLE           X         Y         Z       TOTAL
 POINT-CHG.    -5.963     0.570    -0.001     5.990
 HYBRID        -0.002    -0.729    -0.000     0.729
 SUM           -5.965    -0.159    -0.001     5.967


          ATOMIC ORBITAL ELECTRON POPULATIONS

     Atom    s        px        py        pz   
    1  C   1.07283   1.02563   1.08155   1.23370
    2  C   1.09902   0.91029   0.83021   0.82969
    3  C   1.06489   0.90305   1.00575   1.27074
    4  C   1.09453   0.99375   1.04096   0.84701
    5  C   1.07373   1.00850   1.07059   1.14552
    6  C   1.08686   0.77542   0.95372   0.80377
    7  O   1.83657   1.27820   1.45701   1.87070
    8  N   1.43912   0.99282   0.97345   0.94044
    9  O   1.94195   1.72187   1.18405   1.56737
   10  O   1.94137   1.72807   1.16818   1.54071
   11  F   1.96648   1.80968   1.38839   1.95034
   12  H   0.80659
   13  H   0.80750
   14  H   0.80675
   15  H   0.66064

 **********************
 *                    *
 * JOB ENDED NORMALLY *
 *                    *
 **********************



 TOTAL JOB TIME:             0.33 SECONDS

 == MOPAC DONE ==
