 *******************************************************************************
 ** Site#: 32691        For non-commercial use only    Version 19.179W 32BITS **
 *******************************************************************************
 ** Cite this program as: MOPAC2016, Version: 19.179W, James J. P. Stewart,   **
 ** Stewart Computational Chemistry, web: HTTP://OpenMOPAC.net. Days left: 340**
 *******************************************************************************
 **                                                                           **
 **                                MOPAC2016                                  **
 **                                                                           **
 *******************************************************************************

                              PM7 CALCULATION RESULTS

 *******************************************************************************
 *  CALCULATION DONE:                                Tue Jul 23 10:28:01 2019  *
 *  SYMMETRY   - SYMMETRY CONDITIONS TO BE IMPOSED
 *  T=         - A TIME OF 172800.0 SECONDS REQUESTED
 *  DUMP=N     - RESTART FILE WRITTEN EVERY  7200.000 SECONDS
 *******************************************************************************



                    PARAMETER DEPENDENCE DATA

        REFERENCE ATOM      FUNCTION NO.    DEPENDENT ATOM(S)

             DESCRIPTIONS OF THE FUNCTIONS USED
 
SYMMETRY
 3-methyl-4-nitrophenol.mop

  ATOM    CHEMICAL      BOND LENGTH      BOND ANGLE     TWIST ANGLE 
 NUMBER    SYMBOL       (ANGSTROMS)      (DEGREES)       (DEGREES) 
   (I)                     NA:I           NB:NA:I       NC:NB:NA:I       NA    NB    NC 
     1       C          0.00000000       0.0000000       0.0000000        0     0     0
     2       C          1.34018000  *    0.0000000       0.0000000        1     0     0
     3       C          1.35197300  *  122.9937890  *    0.0000000        2     1     0
     4       C          1.35572400  *  116.7698300  *   -0.0961430  *     3     2     1
     5       C          1.34876700  *  119.1351500  *    0.1171860  *     4     3     2
     6       C          1.33881900  *  120.5996820  *   -0.0010400  *     1     2     3
     7       O          1.35983500  *  121.2337910  * -179.7124800  *     6     1     2
     8       C          1.51916000  *  126.7955840  * -179.9909270  *     4     3     2
     9       N          1.26026300  *  117.3712160  *  179.9125050  *     3     2     1
    10       O          1.30980900  *  126.9429460  *  179.8125320  *     9     3     2
    11       O          1.31634700  *  123.1215800  *    0.0512680  *     9     3     2
    12       H          1.10321300  *  120.0921070  * -179.8633120  *     1     2     3
    13       H          1.10407700  *  114.9930980  *  179.9181450  *     2     1     6
    14       H          1.10382400  *  119.2184200  *  179.8418140  *     5     4     3
    15       H          0.97093800  *  109.1499270  *   -0.3502580  *     7     6     1
    16       H          1.10444600  *  117.8659250  *    0.1864550  *     8     4     3
    17       H          1.11445300  *  109.7342450  *  120.9613900  *     8     4     3
    18       H          1.11445200  *  109.7351180  * -120.6273130  *     8     4     3
 


          CARTESIAN COORDINATES 

    NO.       ATOM           X           Y           Z

     1         C          0.0000      0.0000      0.0000
     2         C          1.3402      0.0000      0.0000
     3         C          2.0764      1.1339      0.0000
     4         C          1.3937      2.3052     -0.0020
     5         C          0.0452      2.2793     -0.0015
     6         C         -0.6815      1.1524      0.0000
     7         O         -2.0412      1.1674      0.0059
     8         C          1.9865      3.7039     -0.0027
     9         N          3.3306      1.0105      0.0017
    10         O          4.2166      1.9751     -0.0014
    11         O          3.9384     -0.1572      0.0025
    12         H         -0.5531     -0.9545      0.0023
    13         H          1.8067     -1.0007      0.0014
    14         H         -0.5121      3.2322     -0.0005
    15         H         -2.3699      0.2538      0.0040
    16         H          3.0869      3.7982     -0.0045
    17         H          1.6376      4.2601     -0.9032
    18         H          1.6402      4.2599      0.8990

 General Reference for PM7:
 "Optimization of Parameters for Semiempirical Methods VI: More Modifications to the 
 NDDO Approximations and Re-optimization of Parameters", J. J. P. Stewart, J. Mol. Mod., 1:32, 19 (2013)
 http://www.springerlink.com/openurl.asp?genre=article&id=doi:10.1007/s00894-012-1667-x

           Empirical Formula: C7 H7 N O3  =    18 atoms



      MOLECULAR POINT GROUP   :   Cs  


      RHF CALCULATION, NO. OF DOUBLY OCCUPIED LEVELS = 29


          Geometry optimization using EF

          DIAGONAL MATRIX USED AS START HESSIAN

 CYCLE:     1 TIME:   0.012 TIME LEFT:  2.00D  GRAD.:   576.791 HEAT:  16.67006
 CYCLE:     2 TIME:   0.047 TIME LEFT:  2.00D  GRAD.:   615.466 HEAT:  13.92105
 CYCLE:     3 TIME:   0.031 TIME LEFT:  2.00D  GRAD.:   257.351 HEAT: -22.59338
 CYCLE:     4 TIME:   0.047 TIME LEFT:  2.00D  GRAD.:   752.574 HEAT: -24.84779
 CYCLE:     5 TIME:   0.078 TIME LEFT:  2.00D  GRAD.:   305.666 HEAT: -30.88062
 CYCLE:     6 TIME:   0.016 TIME LEFT:  2.00D  GRAD.:   120.407 HEAT: -33.87040
 CYCLE:     7 TIME:   0.016 TIME LEFT:  2.00D  GRAD.:    19.104 HEAT: -35.72246
 CYCLE:     8 TIME:   0.031 TIME LEFT:  2.00D  GRAD.:    13.396 HEAT: -35.84905
 CYCLE:     9 TIME:   0.016 TIME LEFT:  2.00D  GRAD.:    12.786 HEAT: -35.89647
 CYCLE:    10 TIME:   0.000 TIME LEFT:  2.00D  GRAD.:     7.519 HEAT: -35.97655
 CYCLE:    11 TIME:   0.016 TIME LEFT:  2.00D  GRAD.:     6.619 HEAT: -35.99533
 CYCLE:    12 TIME:   0.047 TIME LEFT:  2.00D  GRAD.:     3.194 HEAT: -36.00978
 CYCLE:    13 TIME:   0.016 TIME LEFT:  2.00D  GRAD.:     0.995 HEAT: -36.01425

     GRADIENT =  0.99510 IS LESS THAN CUTOFF =  1.00000



 -------------------------------------------------------------------------------
 SYMMETRY
 3-methyl-4-nitrophenol.mop



     GEOMETRY OPTIMISED USING EIGENVECTOR FOLLOWING (EF).     
     SCF FIELD WAS ACHIEVED                                   


                              PM7 CALCULATION
                                                       MOPAC2016 (Version: 19.179W)
                                                       Tue Jul 23 10:28:02 2019
                                                       No. of days remaining = 340




          FINAL HEAT OF FORMATION =        -36.01426 KCAL/MOL =    -150.68366 KJ/MOL


          TOTAL ENERGY            =      -2023.59154 EV
          ELECTRONIC ENERGY       =      -9554.14031 EV  POINT GROUP:     Cs  
          CORE-CORE REPULSION     =       7530.54877 EV
          COSMO AREA              =        172.25 SQUARE ANGSTROMS
          COSMO VOLUME            =        169.16 CUBIC ANGSTROMS

          GRADIENT NORM           =          0.99510 = 0.23455 PER ATOM
          IONIZATION POTENTIAL    =         10.057443 EV
          HOMO LUMO ENERGIES (EV) =        -10.057 -1.101
          NO. OF FILLED LEVELS    =         29
          MOLECULAR WEIGHT        =        153.1372

          MOLECULAR DIMENSIONS (Angstroms)

            Atom       Atom       Distance
            H    15    O    10     6.90644
            H    13    H    17     5.28429
            H    17    H    18     1.74772


          SCF CALCULATIONS        =         17
 
          WALL-CLOCK TIME         =          0.406 SECONDS
          COMPUTATION TIME        =          0.593 SECONDS




  ATOM    CHEMICAL      BOND LENGTH      BOND ANGLE     TWIST ANGLE 
 NUMBER    SYMBOL       (ANGSTROMS)      (DEGREES)       (DEGREES) 
   (I)                     NA:I           NB:NA:I       NC:NB:NA:I       NA    NB    NC 
     1       C          0.00000000       0.0000000       0.0000000        0     0     0
     2       C          1.38218435  *    0.0000000       0.0000000        1     0     0
     3       C          1.40916183  *  120.9997325  *    0.0000000        2     1     0
     4       C          1.40926195  *  120.6492816  *   -0.0968878  *     3     2     1
     5       C          1.39787142  *  118.3547066  *    0.0833939  *     4     3     2
     6       C          1.40280977  *  117.8804599  *    0.0276271  *     1     2     3
     7       O          1.34988337  *  122.4010193  * -179.9031892  *     6     1     2
     8       C          1.48542122  *  125.4880080  * -179.9335104  *     4     3     2
     9       N          1.44728418  *  115.7069974  *  179.9160966  *     3     2     1
    10       O          1.22002992  *  120.5239545  *  179.9299538  *     9     3     2
    11       O          1.22443809  *  117.4610690  *   -0.0893881  *     9     3     2
    12       H          1.08473626  *  121.0431396  * -179.9754377  *     1     2     3
    13       H          1.09960860  *  119.6211094  *  179.9711473  *     2     1     6
    14       H          1.08942649  *  120.7900312  *  179.9662458  *     5     4     3
    15       H          0.99096167  *  112.7675903  *   -0.2586494  *     7     6     1
    16       H          1.10184218  *  115.2745432  *    0.1668533  *     8     4     3
    17       H          1.10278708  *  111.1073011  *  120.6448978  *     8     4     3
    18       H          1.10281600  *  111.1073844  * -120.3232170  *     8     4     3

                             CARTESIAN COORDINATES

   1    C        0.000000000     0.000000000     0.000000000
   2    C        1.382184347     0.000000000     0.000000000
   3    C        2.107950706     1.207890832     0.000000000
   4    C        1.438733809     2.448118147    -0.002050169
   5    C        0.040862410     2.448210220    -0.002285943
   6    C       -0.655993670     1.239978706    -0.000597898
   7    O       -2.001676268     1.346373890     0.001276566
   8    C        2.093650221     3.781369092    -0.003665609
   9    N        3.549063052     1.074387787     0.001909620
  10    O        4.263018572     2.063700297     0.000774817
  11    O        4.011076170    -0.059535808     0.005039800
  12    H       -0.559380391    -0.929379459     0.000398418
  13    H        1.925679288    -0.955903461     0.000942291
  14    H       -0.516746023     3.384117217    -0.003290576
  15    H       -2.456002658     0.465699631    -0.001049289
  16    H        3.195357852     3.764319563    -0.006071154
  17    H        1.798447936     4.367761417    -0.889746308
  18    H        1.802149650     4.368104838     0.883448649


           Empirical Formula: C7 H7 N O3  =    18 atoms



      MOLECULAR POINT GROUP   :   Cs  


                  EIGENVALUES  
 -36.98683 -31.85201 -30.94224 -30.37687 -27.90818 -27.17651 -25.13314 -23.66970
 -21.82629 -21.30216 -18.77594 -18.66577 -17.66851 -17.14969 -16.60438 -15.57750
 -15.47174 -15.30537 -14.91140 -14.64851 -13.94271 -13.45482 -12.82098 -12.70462
 -11.19000 -11.04759 -10.88502 -10.55681 -10.05744  -1.10145  -0.59394   0.56483
   0.90265   1.67905   1.74102   3.04585   3.36089   3.59537   3.84904   3.95543
   4.20583   4.50861   4.76294   4.92671   5.11343   5.12092   5.28230   5.39110
   5.42775   5.76264   6.48302


              NET ATOMIC CHARGES AND DIPOLE CONTRIBUTIONS

  ATOM NO.   TYPE          CHARGE      No. of ELECS.   s-Pop       p-Pop       
    1          C          -0.353806        4.3538     1.07404     3.27977
    2          C           0.012713        3.9873     1.09535     2.89194
    3          C          -0.206767        4.2068     1.06622     3.14055
    4          C           0.203010        3.7970     1.07636     2.72063
    5          C          -0.332251        4.3323     1.07455     3.25770
    6          C           0.361096        3.6389     1.08668     2.55222
    7          O          -0.455199        6.4552     1.83673     4.61847
    8          C          -0.481176        4.4812     1.05152     3.42965
    9          N           0.652330        4.3477     1.44462     2.90305
   10          O          -0.415007        6.4150     1.94041     4.47460
   11          O          -0.422207        6.4222     1.94215     4.48006
   12          H           0.173982        0.8260     0.82602
   13          H           0.188377        0.8116     0.81162
   14          H           0.189897        0.8101     0.81010
   15          H           0.335232        0.6648     0.66477
   16          H           0.201269        0.7987     0.79873
   17          H           0.174198        0.8258     0.82580
   18          H           0.174308        0.8257     0.82569
 DIPOLE           X         Y         Z       TOTAL
 POINT-CHG.    -4.832     0.267    -0.014     4.839
 HYBRID        -0.182    -0.271     0.000     0.326
 SUM           -5.013    -0.004    -0.013     5.013


          ATOMIC ORBITAL ELECTRON POPULATIONS

     Atom    s        px        py        pz   
    1  C   1.07404   1.03158   1.06304   1.18514
    2  C   1.09535   0.98970   1.04984   0.85240
    3  C   1.06622   0.87462   1.01043   1.25550
    4  C   1.07636   0.95601   0.95053   0.81408
    5  C   1.07455   1.01130   1.07455   1.17185
    6  C   1.08668   0.77029   0.96319   0.81874
    7  O   1.83673   1.28449   1.45370   1.88028
    8  C   1.05152   1.20042   1.04280   1.18643
    9  N   1.44462   1.00262   0.96833   0.93210
   10  O   1.94041   1.61462   1.29951   1.56047
   11  O   1.94215   1.80232   1.11453   1.56321
   12  H   0.82602
   13  H   0.81162
   14  H   0.81010
   15  H   0.66477
   16  H   0.79873
   17  H   0.82580
   18  H   0.82569

 **********************
 *                    *
 * JOB ENDED NORMALLY *
 *                    *
 **********************



 TOTAL JOB TIME:             0.41 SECONDS

 == MOPAC DONE ==
