 *******************************************************************************
 ** Site#: 32691        For non-commercial use only    Version 19.179W 32BITS **
 *******************************************************************************
 ** Cite this program as: MOPAC2016, Version: 19.179W, James J. P. Stewart,   **
 ** Stewart Computational Chemistry, web: HTTP://OpenMOPAC.net. Days left: 337**
 *******************************************************************************
 **                                                                           **
 **                                MOPAC2016                                  **
 **                                                                           **
 *******************************************************************************

                              PM7 CALCULATION RESULTS

 *******************************************************************************
 *  CALCULATION DONE:                                Fri Jul 26 14:19:16 2019  *
 *  T=         - A TIME OF 172800.0 SECONDS REQUESTED
 *  DUMP=N     - RESTART FILE WRITTEN EVERY  7200.000 SECONDS
 *******************************************************************************

 3-methyl-4-nitrophenol2.mop

  ATOM    CHEMICAL      BOND LENGTH      BOND ANGLE     TWIST ANGLE 
 NUMBER    SYMBOL       (ANGSTROMS)      (DEGREES)       (DEGREES) 
   (I)                     NA:I           NB:NA:I       NC:NB:NA:I       NA    NB    NC 
     1       C          0.00000000       0.0000000       0.0000000        0     0     0
     2       C          1.34748700  *    0.0000000       0.0000000        1     0     0
     3       C          1.35465500  *  119.3066910  *    0.0000000        2     1     0
     4       C          1.35031400  *  117.2242740  *   -0.0800770  *     3     2     1
     5       C          1.34062400  *  122.4345950  *    0.0962610  *     4     3     2
     6       C          1.34144500  *  123.4102110  *    0.0038860  *     1     2     3
     7       O          1.36009100  *  121.2465220  * -179.7355500  *     6     1     2
     8       N          1.25988800  *  124.1577000  *  179.9277260  *     3     2     1
     9       O          1.31549600  *  123.2223890  *  179.8028880  *     8     3     2
    10       O          1.31177800  *  125.6572420  *    0.0650180  *     8     3     2
    11       C          1.51752400  *  117.0266760  *  179.9376240  *     2     1     6
    12       H          1.10296000  *  119.7279960  * -179.8748190  *     1     2     3
    13       H          1.10387600  *  121.7876950  *  179.9933880  *     4     3     2
    14       H          1.10320100  *  120.0277380  *  179.8553200  *     5     4     3
    15       H          0.97091900  *  109.1147470  *   -0.4092060  *     7     6     1
    16       H          1.11261700  *  113.1122240  *   -0.0004430  *    11     2     1
    17       H          1.11351700  *  111.0405410  *  118.3792300  *    11     2     1
    18       H          1.11351000  *  111.0508820  * -118.3770120  *    11     2     1
 


          CARTESIAN COORDINATES 

    NO.       ATOM           X           Y           Z

     1         C          0.0000      0.0000      0.0000
     2         C          1.3475      0.0000      0.0000
     3         C          2.0106      1.1813      0.0000
     4         C          1.2659      2.3077     -0.0017
     5         C         -0.0745      2.2835     -0.0014
     6         C         -0.7386      1.1198     -0.0001
     7         O         -2.0978      1.0684      0.0053
     8         N          3.2659      1.2878      0.0013
     9         O          3.8911      2.4453     -0.0025
    10         O          4.1180      0.2905      0.0017
    11         C          2.0371     -1.3518      0.0016
    12         H         -0.5469     -0.9578      0.0021
    13         H          1.7279      3.3102     -0.0017
    14         H         -0.6437      3.2285     -0.0004
    15         H         -2.3808      0.1397      0.0023
    16         H          1.3239     -2.2058      0.0026
    17         H          2.6588     -1.4845     -0.9127
    18         H          2.6588     -1.4826      0.9160

 General Reference for PM7:
 "Optimization of Parameters for Semiempirical Methods VI: More Modifications to the 
 NDDO Approximations and Re-optimization of Parameters", J. J. P. Stewart, J. Mol. Mod., 1:32, 19 (2013)
 http://www.springerlink.com/openurl.asp?genre=article&id=doi:10.1007/s00894-012-1667-x

           Empirical Formula: C7 H7 N O3  =    18 atoms



      MOLECULAR POINT GROUP   :   Cs  


      RHF CALCULATION, NO. OF DOUBLY OCCUPIED LEVELS = 29


          Geometry optimization using EF

          DIAGONAL MATRIX USED AS START HESSIAN

 CYCLE:     1 TIME:   0.031 TIME LEFT:  2.00D  GRAD.:   601.361 HEAT:  14.44889
 CYCLE:     2 TIME:   0.062 TIME LEFT:  2.00D  GRAD.:   610.718 HEAT:  12.29072
 CYCLE:     3 TIME:   0.016 TIME LEFT:  2.00D  GRAD.:   281.189 HEAT: -24.13067
 CYCLE:     4 TIME:   0.031 TIME LEFT:  2.00D  GRAD.:   637.033 HEAT: -27.20002
 CYCLE:     5 TIME:   0.016 TIME LEFT:  2.00D  GRAD.:   147.155 HEAT: -36.02810
 CYCLE:     6 TIME:   0.016 TIME LEFT:  2.00D  GRAD.:    67.099 HEAT: -37.04471
 CYCLE:     7 TIME:   0.031 TIME LEFT:  2.00D  GRAD.:    23.906 HEAT: -37.61945
 CYCLE:     8 TIME:   0.031 TIME LEFT:  2.00D  GRAD.:    24.037 HEAT: -37.72282
 CYCLE:     9 TIME:   0.016 TIME LEFT:  2.00D  GRAD.:     5.927 HEAT: -37.80569
 CYCLE:    10 TIME:   0.016 TIME LEFT:  2.00D  GRAD.:     5.371 HEAT: -37.82574
 CYCLE:    11 TIME:   0.016 TIME LEFT:  2.00D  GRAD.:     4.652 HEAT: -37.84654
 CYCLE:    12 TIME:   0.016 TIME LEFT:  2.00D  GRAD.:     1.384 HEAT: -37.85430
 CYCLE:    13 TIME:   0.016 TIME LEFT:  2.00D  GRAD.:     0.619 HEAT: -37.85559

     GRADIENT =  0.61924 IS LESS THAN CUTOFF =  1.00000



 -------------------------------------------------------------------------------

 3-methyl-4-nitrophenol2.mop



     GEOMETRY OPTIMISED USING EIGENVECTOR FOLLOWING (EF).     
     SCF FIELD WAS ACHIEVED                                   


                              PM7 CALCULATION
                                                       MOPAC2016 (Version: 19.179W)
                                                       Fri Jul 26 14:19:16 2019
                                                       No. of days remaining = 337




          FINAL HEAT OF FORMATION =        -37.85559 KCAL/MOL =    -158.38780 KJ/MOL


          TOTAL ENERGY            =      -2023.67198 EV
          ELECTRONIC ENERGY       =      -9573.27692 EV  POINT GROUP:     Cs  
          CORE-CORE REPULSION     =       7549.60494 EV
          COSMO AREA              =        171.57 SQUARE ANGSTROMS
          COSMO VOLUME            =        169.83 CUBIC ANGSTROMS

          GRADIENT NORM           =          0.61924 = 0.14596 PER ATOM
          IONIZATION POTENTIAL    =         10.020884 EV
          HOMO LUMO ENERGIES (EV) =        -10.021 -1.104
          NO. OF FILLED LEVELS    =         29
          MOLECULAR WEIGHT        =        153.1372

          MOLECULAR DIMENSIONS (Angstroms)

            Atom       Atom       Distance
            H    15    O     9     6.80016
            H    16    H    14     5.90296
            H    17    H    18     1.75671


          SCF CALCULATIONS        =         18
 
          WALL-CLOCK TIME         =          0.328 SECONDS
          COMPUTATION TIME        =          0.577 SECONDS




  ATOM    CHEMICAL      BOND LENGTH      BOND ANGLE     TWIST ANGLE 
 NUMBER    SYMBOL       (ANGSTROMS)      (DEGREES)       (DEGREES) 
   (I)                     NA:I           NB:NA:I       NC:NB:NA:I       NA    NB    NC 
     1       C          0.00000000       0.0000000       0.0000000        0     0     0
     2       C          1.39827345  *    0.0000000       0.0000000        1     0     0
     3       C          1.40760468  *  118.4726590  *    0.0000000        2     1     0
     4       C          1.40969951  *  121.0516663  *   -0.0141021  *     3     2     1
     5       C          1.37976069  *  120.5392186  *    0.0578275  *     4     3     2
     6       C          1.39454057  *  119.5027772  *   -0.0178395  *     1     2     3
     7       O          1.34936135  *  122.5348039  * -179.9141451  *     6     1     2
     8       N          1.44478037  *  121.9667575  *  179.9886342  *     3     2     1
     9       O          1.22322239  *  118.0209003  *  179.9279078  *     8     3     2
    10       O          1.22163606  *  119.4441230  *   -0.0804263  *     8     3     2
    11       C          1.48305287  *  118.7769075  *  179.9770565  *     2     1     6
    12       H          1.08543844  *  120.0276269  * -179.9756137  *     1     2     3
    13       H          1.09874038  *  119.2650859  * -179.9541533  *     4     3     2
    14       H          1.08814472  *  122.0859095  *  179.9362132  *     5     4     3
    15       H          0.99115235  *  112.7972096  *   -0.3148138  *     7     6     1
    16       H          1.09730457  *  113.5574480  *    0.0004650  *    11     2     1
    17       H          1.10652993  *  111.6473475  *  121.3411480  *    11     2     1
    18       H          1.10656034  *  111.6590513  * -121.3492142  *    11     2     1

                             CARTESIAN COORDINATES

   1    C        0.000000000     0.000000000     0.000000000
   2    C        1.398273455     0.000000000     0.000000000
   3    C        2.069333985     1.237347443     0.000000000
   4    C        1.354373185     2.452289278    -0.000297247
   5    C       -0.025386362     2.453819933     0.000603442
   6    C       -0.686763463     1.213712982     0.000377900
   7    O       -2.034234768     1.285086402     0.002104759
   8    N        3.511428601     1.325400648     0.000243140
   9    O        4.019211576     2.438247259    -0.001132251
  10    O        4.175673845     0.300134829     0.001949250
  11    C        2.112215768    -1.299896981     0.000115795
  12    H       -0.543172414    -0.939755380     0.000399980
  13    H        1.908042944     3.401330710    -0.001055789
  14    H       -0.602374682     3.376393903     0.001426374
  15    H       -2.466075399     0.392965322    -0.001971976
  16    H        1.441705066    -2.168512384     0.000185009
  17    H        2.777603521    -1.400229477    -0.878292428
  18    H        2.777793306    -1.400221241     0.878419490


           Empirical Formula: C7 H7 N O3  =    18 atoms



      MOLECULAR POINT GROUP   :   Cs  


                  EIGENVALUES  
 -36.98814 -31.87070 -30.95220 -30.37935 -27.98522 -27.11701 -24.96615 -23.91395
 -21.98748 -20.94481 -18.93993 -18.63386 -17.70930 -17.18622 -16.65895 -15.62422
 -15.40608 -14.95695 -14.94201 -14.54774 -14.34151 -13.38745 -12.79296 -12.74506
 -11.17441 -11.05340 -10.90930 -10.61672 -10.02088  -1.10445  -0.57398   0.56737
   0.93478   1.67229   1.74004   3.02874   3.34355   3.65160   3.72619   4.00673
   4.20677   4.54415   4.70603   4.96409   5.17167   5.17490   5.24056   5.30407
   5.47021   5.70935   6.38633


              NET ATOMIC CHARGES AND DIPOLE CONTRIBUTIONS

  ATOM NO.   TYPE          CHARGE      No. of ELECS.   s-Pop       p-Pop       
    1          C          -0.388711        4.3887     1.07499     3.31372
    2          C           0.211149        3.7889     1.07542     2.71343
    3          C          -0.214236        4.2142     1.06609     3.14815
    4          C           0.002492        3.9975     1.09505     2.90246
    5          C          -0.291582        4.2916     1.07325     3.21833
    6          C           0.362742        3.6373     1.08803     2.54923
    7          O          -0.453401        6.4534     1.83689     4.61651
    8          N           0.651148        4.3489     1.44405     2.90481
    9          O          -0.417365        6.4174     1.94194     4.47543
   10          O          -0.422264        6.4223     1.94124     4.48102
   11          C          -0.468514        4.4685     1.05112     3.41740
   12          H           0.174073        0.8259     0.82593
   13          H           0.188793        0.8112     0.81121
   14          H           0.189524        0.8105     0.81048
   15          H           0.334481        0.6655     0.66552
   16          H           0.158597        0.8414     0.84140
   17          H           0.191494        0.8085     0.80851
   18          H           0.191578        0.8084     0.80842
 DIPOLE           X         Y         Z       TOTAL
 POINT-CHG.    -4.748    -2.015    -0.008     5.158
 HYBRID        -0.112    -0.373    -0.001     0.389
 SUM           -4.860    -2.388    -0.008     5.415


          ATOMIC ORBITAL ELECTRON POPULATIONS

     Atom    s        px        py        pz   
    1  C   1.07499   1.02910   1.07002   1.21461
    2  C   1.07542   0.95166   0.95287   0.80890
    3  C   1.06609   0.87678   1.01203   1.25934
    4  C   1.09505   0.99433   1.04723   0.86089
    5  C   1.07325   1.01256   1.06369   1.14208
    6  C   1.08803   0.76955   0.96439   0.81529
    7  O   1.83689   1.28711   1.45053   1.87887
    8  N   1.44405   1.00336   0.96794   0.93351
    9  O   1.94194   1.77496   1.13890   1.56157
   10  O   1.94124   1.66417   1.25437   1.56248
   11  C   1.05112   1.15753   1.04616   1.21371
   12  H   0.82593
   13  H   0.81121
   14  H   0.81048
   15  H   0.66552
   16  H   0.84140
   17  H   0.80851
   18  H   0.80842

 **********************
 *                    *
 * JOB ENDED NORMALLY *
 *                    *
 **********************



 TOTAL JOB TIME:             0.34 SECONDS

 == MOPAC DONE ==
