 *******************************************************************************
 ** Site#: 32691        For non-commercial use only    Version 19.179W 32BITS **
 *******************************************************************************
 ** Cite this program as: MOPAC2016, Version: 19.179W, James J. P. Stewart,   **
 ** Stewart Computational Chemistry, web: HTTP://OpenMOPAC.net. Days left: 337**
 *******************************************************************************
 **                                                                           **
 **                                MOPAC2016                                  **
 **                                                                           **
 *******************************************************************************

                              PM7 CALCULATION RESULTS

 *******************************************************************************
 *  CALCULATION DONE:                                Fri Jul 26 15:28:06 2019  *
 *  T=         - A TIME OF 172800.0 SECONDS REQUESTED
 *  DUMP=N     - RESTART FILE WRITTEN EVERY  7200.000 SECONDS
 *******************************************************************************

 3-methyl-4-nitrobenzoic acid2.mop

  ATOM    CHEMICAL      BOND LENGTH      BOND ANGLE     TWIST ANGLE 
 NUMBER    SYMBOL       (ANGSTROMS)      (DEGREES)       (DEGREES) 
   (I)                     NA:I           NB:NA:I       NC:NB:NA:I       NA    NB    NC 
     1       C          0.00000000       0.0000000       0.0000000        0     0     0
     2       C          1.34900300  *    0.0000000       0.0000000        1     0     0
     3       C          1.35502900  *  119.5822670  *    0.0000000        2     1     0
     4       C          1.34871300  *  117.6216230  *    0.0310440  *     3     2     1
     5       C          1.33912400  *  122.3104870  *   -0.0364470  *     4     3     2
     6       C          1.34261100  *  122.2604680  *    0.0052010  *     1     2     3
     7       C          1.36185600  *  122.5876430  *  179.9250070  *     6     1     2
     8       O          1.21226900  *  125.8016510  *   -0.0352450  *     7     6     1
     9       O          1.35946600  *  121.1994370  * -179.8991370  *     7     6     1
    10       N          1.25887400  *  124.6336870  * -179.9619330  *     3     2     1
    11       O          1.31559100  *  123.4595510  * -179.9844450  *    10     3     2
    12       O          1.30859500  *  125.3587190  *    0.0615740  *    10     3     2
    13       C          1.51795500  *  117.0485100  * -179.9859470  *     2     1     6
    14       H          1.10225200  *  118.5065490  *  179.9685380  *     1     2     3
    15       H          1.10412000  *  121.9663660  *  179.9981850  *     4     3     2
    16       H          1.10302200  *  117.7242380  * -179.9654780  *     5     4     3
    17       H          0.97066400  *  108.1808740  *  179.3279550  *     9     7     6
    18       H          1.11251200  *  113.2684750  *   -0.0087610  *    13     2     1
    19       H          1.11349700  *  111.0172090  *  118.4126110  *    13     2     1
    20       H          1.11351000  *  111.0020340  * -118.4259840  *    13     2     1
 


          CARTESIAN COORDINATES 

    NO.       ATOM           X           Y           Z

     1         C          0.0000      0.0000      0.0000
     2         C          1.3490      0.0000      0.0000
     3         C          2.0179      1.1784      0.0000
     4         C          1.2874      2.3121      0.0006
     5         C         -0.0517      2.3008      0.0006
     6         C         -0.7166      1.1354     -0.0001
     7         C         -2.0785      1.1431     -0.0016
     8         O         -2.7932      0.1640     -0.0036
     9         O         -2.7761      2.3100     -0.0037
    10         N          3.2719      1.2892     -0.0007
    11         O          3.8978      2.4464     -0.0004
    12         O          4.1202      0.2928     -0.0027
    13         C          2.0393     -1.3519     -0.0002
    14         H         -0.5261     -0.9686     -0.0005
    15         H          1.7582      3.3109      0.0007
    16         H         -0.5731      3.2728      0.0005
    17         H         -3.7229      2.0967     -0.0153
    18         H          1.3289     -2.2081     -0.0002
    19         H          2.6614     -1.4826     -0.9144
    20         H          2.6615     -1.4825      0.9140

 General Reference for PM7:
 "Optimization of Parameters for Semiempirical Methods VI: More Modifications to the 
 NDDO Approximations and Re-optimization of Parameters", J. J. P. Stewart, J. Mol. Mod., 1:32, 19 (2013)
 http://www.springerlink.com/openurl.asp?genre=article&id=doi:10.1007/s00894-012-1667-x

           Empirical Formula: C8 H7 N O4  =    20 atoms



      MOLECULAR POINT GROUP   :   Cs  


      RHF CALCULATION, NO. OF DOUBLY OCCUPIED LEVELS = 34


          Geometry optimization using EF

          DIAGONAL MATRIX USED AS START HESSIAN

 CYCLE:     1 TIME:   0.031 TIME LEFT:  2.00D  GRAD.:   658.739 HEAT: -15.28858
 CYCLE:     2 TIME:   0.078 TIME LEFT:  2.00D  GRAD.:   613.142 HEAT: -20.58079
 CYCLE:     3 TIME:   0.031 TIME LEFT:  2.00D  GRAD.:   311.775 HEAT: -58.42809
 CYCLE:     4 TIME:   0.031 TIME LEFT:  2.00D  GRAD.:   691.982 HEAT: -63.23402
 CYCLE:     5 TIME:   0.031 TIME LEFT:  2.00D  GRAD.:   158.125 HEAT: -74.44463
 CYCLE:     6 TIME:   0.016 TIME LEFT:  2.00D  GRAD.:    73.808 HEAT: -76.41791
 CYCLE:     7 TIME:   0.016 TIME LEFT:  2.00D  GRAD.:    35.613 HEAT: -77.31515
 CYCLE:     8 TIME:   0.016 TIME LEFT:  2.00D  GRAD.:    30.122 HEAT: -77.53509
 CYCLE:     9 TIME:   0.016 TIME LEFT:  2.00D  GRAD.:    22.583 HEAT: -77.62145
 CYCLE:    10 TIME:   0.016 TIME LEFT:  2.00D  GRAD.:    17.766 HEAT: -77.75743
 CYCLE:    11 TIME:   0.031 TIME LEFT:  2.00D  GRAD.:     8.801 HEAT: -77.82960
 CYCLE:    12 TIME:   0.016 TIME LEFT:  2.00D  GRAD.:     2.123 HEAT: -77.85054
 CYCLE:    13 TIME:   0.031 TIME LEFT:  2.00D  GRAD.:     1.637 HEAT: -77.85528
 CYCLE:    14 TIME:   0.016 TIME LEFT:  2.00D  GRAD.:     1.409 HEAT: -77.85876
 CYCLE:    15 TIME:   0.000 TIME LEFT:  2.00D  GRAD.:     0.720 HEAT: -77.85908

     GRADIENT =  0.71968 IS LESS THAN CUTOFF =  1.00000



 -------------------------------------------------------------------------------

 3-methyl-4-nitrobenzoic acid2.mop



     GEOMETRY OPTIMISED USING EIGENVECTOR FOLLOWING (EF).     
     SCF FIELD WAS ACHIEVED                                   


                              PM7 CALCULATION
                                                       MOPAC2016 (Version: 19.179W)
                                                       Fri Jul 26 15:28:06 2019
                                                       No. of days remaining = 337




          FINAL HEAT OF FORMATION =        -77.85908 KCAL/MOL =    -325.76241 KJ/MOL


          TOTAL ENERGY            =      -2441.99265 EV
          ELECTRONIC ENERGY       =     -12123.72619 EV  POINT GROUP:     Cs  
          CORE-CORE REPULSION     =       9681.73354 EV
          COSMO AREA              =        193.30 SQUARE ANGSTROMS
          COSMO VOLUME            =        195.16 CUBIC ANGSTROMS

          GRADIENT NORM           =          0.71968 = 0.16092 PER ATOM
          IONIZATION POTENTIAL    =         10.573917 EV
          HOMO LUMO ENERGIES (EV) =        -10.574 -1.854
          NO. OF FILLED LEVELS    =         34
          MOLECULAR WEIGHT        =        181.1476

          MOLECULAR DIMENSIONS (Angstroms)

            Atom       Atom       Distance
            H    17    O    12     8.17093
            H    18    H    15     5.50425
            H    19    H    20     1.75902


          SCF CALCULATIONS        =         19
 
          WALL-CLOCK TIME         =          0.406 SECONDS
          COMPUTATION TIME        =          0.655 SECONDS




  ATOM    CHEMICAL      BOND LENGTH      BOND ANGLE     TWIST ANGLE 
 NUMBER    SYMBOL       (ANGSTROMS)      (DEGREES)       (DEGREES) 
   (I)                     NA:I           NB:NA:I       NC:NB:NA:I       NA    NB    NC 
     1       C          0.00000000       0.0000000       0.0000000        0     0     0
     2       C          1.40236113  *    0.0000000       0.0000000        1     0     0
     3       C          1.40276407  *  117.8568501  *    0.0000000        2     1     0
     4       C          1.40236362  *  121.3926073  *    0.0160197  *     3     2     1
     5       C          1.38755153  *  119.9571737  *   -0.0105169  *     4     3     2
     6       C          1.39098118  *  120.6831901  *    0.0018620  *     1     2     3
     7       C          1.47730957  *  117.7541889  *  179.9742627  *     6     1     2
     8       O          1.20335177  *  127.6633063  *   -0.0512013  *     7     6     1
     9       O          1.35748380  *  111.5768246  *  179.9775692  *     7     6     1
    10       N          1.45830922  *  121.7064059  * -179.9935684  *     3     2     1
    11       O          1.22152289  *  117.7278126  * -179.9614350  *    10     3     2
    12       O          1.21947586  *  119.2415292  *    0.0415853  *    10     3     2
    13       C          1.48282930  *  118.8590881  * -179.9922775  *     2     1     6
    14       H          1.09568339  *  119.7594027  *  179.9965895  *     1     2     3
    15       H          1.09718413  *  119.9466456  *  179.9912594  *     4     3     2
    16       H          1.09374503  *  120.5447872  * -179.9962387  *     5     4     3
    17       H          0.99156296  *  113.1793291  *  179.8146279  *     9     7     6
    18       H          1.09900230  *  113.3842934  *   -0.0198820  *    13     2     1
    19       H          1.10570322  *  111.8293916  *  121.0031061  *    13     2     1
    20       H          1.10570987  *  111.8408136  * -121.0554643  *    13     2     1

                             CARTESIAN COORDINATES

   1    C        0.000000000     0.000000000     0.000000000
   2    C        1.402361131     0.000000000     0.000000000
   3    C        2.057822438     1.240208661     0.000000000
   4    C        1.340792242     2.445402132     0.000334701
   5    C       -0.046626260     2.426189476     0.000454493
   6    C       -0.709804659     1.196246629    -0.000038876
   7    C       -2.185184185     1.120758444    -0.000623684
   8    O       -2.870819529     0.131840880    -0.001934365
   9    O       -2.748249340     2.355958679    -0.000104007
  10    N        3.512841378     1.338115006    -0.000139268
  11    O        4.007307343     2.455084580     0.000598022
  12    O        4.178640475     0.316433970    -0.001031241
  13    C        2.118059275    -1.298675818    -0.000132836
  14    H       -0.543852284    -0.951181778    -0.000056618
  15    H        1.877781883     3.402196325     0.000471991
  16    H       -0.615469926     3.360370958     0.000653259
  17    H       -3.739541078     2.333008065    -0.003429703
  18    H        1.445130752    -2.167567756     0.000128327
  19    H        2.779537278    -1.403496922    -0.879927702
  20    H        2.780306903    -1.403489152     0.879092140


           Empirical Formula: C8 H7 N O4  =    20 atoms



      MOLECULAR POINT GROUP   :   Cs  


                  EIGENVALUES  
 -37.39866 -32.23968 -31.74127 -30.83125 -30.48408 -28.46342 -27.78947 -25.77974
 -24.70516 -22.73407 -21.81708 -20.56765 -19.02522 -18.38978 -17.64077 -17.54019
 -17.40598 -16.38414 -16.19365 -15.81232 -15.11774 -15.06853 -14.88731 -13.97821
 -13.70395 -13.58572 -13.05055 -12.60366 -11.70119 -11.50885 -11.40163 -11.21007
 -11.10502 -10.57392  -1.85369  -0.79295  -0.08620   0.48678   0.74368   1.44392
   1.60115   2.60700   2.91782   3.23852   3.52785   3.64403   3.85153   4.00626
   4.12294   4.23358   4.59469   4.83325   5.00528   5.06112   5.06244   5.12363
   5.30110   5.33408   6.26782


              NET ATOMIC CHARGES AND DIPOLE CONTRIBUTIONS

  ATOM NO.   TYPE          CHARGE      No. of ELECS.   s-Pop       p-Pop       
    1          C          -0.148843        4.1488     1.09151     3.05733
    2          C           0.097939        3.9021     1.07280     2.82926
    3          C          -0.084950        4.0850     1.08182     3.00313
    4          C          -0.101206        4.1012     1.09212     3.00909
    5          C          -0.120285        4.1203     1.08629     3.03399
    6          C          -0.074808        4.0748     1.07338     3.00142
    7          C           0.627450        3.3726     1.10705     2.26551
    8          O          -0.482673        6.4827     1.87794     4.60473
    9          O          -0.549287        6.5493     1.83935     4.70994
   10          N           0.622187        4.3778     1.45186     2.92595
   11          O          -0.397277        6.3973     1.94195     4.45533
   12          O          -0.397374        6.3974     1.94122     4.45616
   13          C          -0.457695        4.4577     1.04943     3.40827
   14          H           0.188163        0.8118     0.81184
   15          H           0.192936        0.8071     0.80706
   16          H           0.187592        0.8124     0.81241
   17          H           0.361297        0.6387     0.63870
   18          H           0.163037        0.8370     0.83696
   19          H           0.186902        0.8131     0.81310
   20          H           0.186894        0.8131     0.81311
 DIPOLE           X         Y         Z       TOTAL
 POINT-CHG.    -2.682     0.047    -0.002     2.683
 HYBRID        -0.150     0.021    -0.001     0.151
 SUM           -2.832     0.069    -0.003     2.833


          ATOMIC ORBITAL ELECTRON POPULATIONS

     Atom    s        px        py        pz   
    1  C   1.09151   1.00103   1.06703   0.98928
    2  C   1.07280   0.96869   0.96021   0.90037
    3  C   1.08182   0.86784   1.00916   1.12613
    4  C   1.09212   1.00661   1.05551   0.94697
    5  C   1.08629   1.00176   1.05769   0.97455
    6  C   1.07338   0.97084   1.00215   1.02843
    7  C   1.10705   0.85674   0.73832   0.67044
    8  O   1.87794   1.66549   1.44361   1.49563
    9  O   1.83935   1.39966   1.44523   1.86505
   10  N   1.45186   1.00942   0.97262   0.94391
   11  O   1.94195   1.78023   1.12789   1.54721
   12  O   1.94122   1.65865   1.25205   1.54546
   13  C   1.04943   1.15719   1.04102   1.21006
   14  H   0.81184
   15  H   0.80706
   16  H   0.81241
   17  H   0.63870
   18  H   0.83696
   19  H   0.81310
   20  H   0.81311

 **********************
 *                    *
 * JOB ENDED NORMALLY *
 *                    *
 **********************



 TOTAL JOB TIME:             0.41 SECONDS

 == MOPAC DONE ==
