 *******************************************************************************
 ** Site#: 32691        For non-commercial use only    Version 19.179W 32BITS **
 *******************************************************************************
 ** Cite this program as: MOPAC2016, Version: 19.179W, James J. P. Stewart,   **
 ** Stewart Computational Chemistry, web: HTTP://OpenMOPAC.net. Days left: 337**
 *******************************************************************************
 **                                                                           **
 **                                MOPAC2016                                  **
 **                                                                           **
 *******************************************************************************

                              PM7 CALCULATION RESULTS

 *******************************************************************************
 *  CALCULATION DONE:                                Fri Jul 26 13:42:25 2019  *
 *  T=         - A TIME OF 172800.0 SECONDS REQUESTED
 *  DUMP=N     - RESTART FILE WRITTEN EVERY  7200.000 SECONDS
 *******************************************************************************

 3-methyl-2-nitrophenol2.mop

  ATOM    CHEMICAL      BOND LENGTH      BOND ANGLE     TWIST ANGLE 
 NUMBER    SYMBOL       (ANGSTROMS)      (DEGREES)       (DEGREES) 
   (I)                     NA:I           NB:NA:I       NC:NB:NA:I       NA    NB    NC 
     1       C          0.00000000       0.0000000       0.0000000        0     0     0
     2       C          1.33645300  *    0.0000000       0.0000000        1     0     0
     3       C          1.33614100  *  118.4511350  *    0.0000000        2     1     0
     4       C          1.34570800  *  122.1663630  *   -0.0113340  *     3     2     1
     5       C          1.35934400  *  118.9903690  *   -0.3998010  *     4     3     2
     6       C          1.34626200  *  121.4036850  *    0.2195280  *     1     2     3
     7       N          1.25954500  *  119.0636400  * -179.5353380  *     5     4     3
     8       O          1.31079500  *  127.3594900  *  179.7013370  *     7     5     4
     9       O          1.31021600  *  122.3577630  *    2.2348800  *     7     5     4
    10       O          1.36946400  *  115.9579100  *  179.8276490  *     4     3     2
    11       C          1.51901700  *  116.0903670  *  179.9455320  *     6     1     2
    12       H          1.10279200  *  117.7389020  * -179.8582960  *     1     2     3
    13       H          1.10266200  *  120.8167950  * -179.9239700  *     2     1     6
    14       H          1.10380900  *  118.4443720  *  179.8135880  *     3     2     1
    15       H          0.96446200  *  117.5566870  *  170.1649690  *    10     4     3
    16       H          1.11353700  *  111.1569720  * -117.6776660  *    11     6     1
    17       H          1.11260800  *  113.1712210  *    0.4429460  *    11     6     1
    18       H          1.11353300  *  111.1757400  *  118.5272070  *    11     6     1
 


          CARTESIAN COORDINATES 

    NO.       ATOM           X           Y           Z

     1         C          0.0000      0.0000      0.0000
     2         C          1.3365      0.0000      0.0000
     3         C          1.9730      1.1748      0.0000
     4         C          1.3127      2.3474     -0.0002
     5         C         -0.0465      2.3381     -0.0088
     6         C         -0.7015      1.1490     -0.0044
     7         N         -0.6659      3.4348     -0.0179
     8         O         -1.9641      3.6150     -0.0324
     9         O         -0.0474      4.5890     -0.0627
    10         O          2.0916      3.4738      0.0035
    11         C         -2.2140      1.0084     -0.0052
    12         H         -0.5133     -0.9761      0.0024
    13         H          1.9013     -0.9470      0.0024
    14         H          3.0768      1.1746      0.0032
    15         H          1.6527      4.3201     -0.1426
    16         H         -2.6581      1.4484     -0.9266
    17         H         -2.5552     -0.0506      0.0060
    18         H         -2.6612      1.4679      0.9052

 General Reference for PM7:
 "Optimization of Parameters for Semiempirical Methods VI: More Modifications to the 
 NDDO Approximations and Re-optimization of Parameters", J. J. P. Stewart, J. Mol. Mod., 1:32, 19 (2013)
 http://www.springerlink.com/openurl.asp?genre=article&id=doi:10.1007/s00894-012-1667-x

           Empirical Formula: C7 H7 N O3  =    18 atoms



      MOLECULAR POINT GROUP   :   C1  


      RHF CALCULATION, NO. OF DOUBLY OCCUPIED LEVELS = 29


          Geometry optimization using EF

          DIAGONAL MATRIX USED AS START HESSIAN

 CYCLE:     1 TIME:   0.000 TIME LEFT:  2.00D  GRAD.:   640.550 HEAT:  10.80478
 CYCLE:     2 TIME:   0.031 TIME LEFT:  2.00D  GRAD.:   586.383 HEAT:  8.960721
 CYCLE:     3 TIME:   0.016 TIME LEFT:  2.00D  GRAD.:   297.725 HEAT: -25.89292
 CYCLE:     4 TIME:   0.031 TIME LEFT:  2.00D  GRAD.:   827.251 HEAT: -26.01240
 CYCLE:     5 TIME:   0.016 TIME LEFT:  2.00D  GRAD.:   177.569 HEAT: -37.78558
 CYCLE:     6 TIME:   0.000 TIME LEFT:  2.00D  GRAD.:    90.436 HEAT: -38.61894
 CYCLE:     7 TIME:   0.016 TIME LEFT:  2.00D  GRAD.:    53.770 HEAT: -39.32855
 CYCLE:     8 TIME:   0.016 TIME LEFT:  2.00D  GRAD.:    71.888 HEAT: -39.34347
 CYCLE:     9 TIME:   0.016 TIME LEFT:  2.00D  GRAD.:    41.482 HEAT: -39.72482
 CYCLE:    10 TIME:   0.016 TIME LEFT:  2.00D  GRAD.:    18.622 HEAT: -40.14795
 CYCLE:    11 TIME:   0.016 TIME LEFT:  2.00D  GRAD.:     9.963 HEAT: -40.26967
 CYCLE:    12 TIME:   0.031 TIME LEFT:  2.00D  GRAD.:     7.876 HEAT: -40.31685
 CYCLE:    13 TIME:   0.016 TIME LEFT:  2.00D  GRAD.:     2.734 HEAT: -40.35841
 CYCLE:    14 TIME:   0.000 TIME LEFT:  2.00D  GRAD.:     2.021 HEAT: -40.36702
 CYCLE:    15 TIME:   0.016 TIME LEFT:  2.00D  GRAD.:     1.813 HEAT: -40.37353
 CYCLE:    16 TIME:   0.016 TIME LEFT:  2.00D  GRAD.:     1.487 HEAT: -40.37998
 CYCLE:    17 TIME:   0.016 TIME LEFT:  2.00D  GRAD.:     1.027 HEAT: -40.38213
 CYCLE:    18 TIME:   0.000 TIME LEFT:  2.00D  GRAD.:     0.622 HEAT: -40.38346

     GRADIENT =  0.62173 IS LESS THAN CUTOFF =  1.00000



 -------------------------------------------------------------------------------

 3-methyl-2-nitrophenol2.mop



     GEOMETRY OPTIMISED USING EIGENVECTOR FOLLOWING (EF).     
     SCF FIELD WAS ACHIEVED                                   


                              PM7 CALCULATION
                                                       MOPAC2016 (Version: 19.179W)
                                                       Fri Jul 26 13:42:25 2019
                                                       No. of days remaining = 337




          FINAL HEAT OF FORMATION =        -40.38347 KCAL/MOL =    -168.96443 KJ/MOL


          TOTAL ENERGY            =      -2023.68839 EV
          ELECTRONIC ENERGY       =      -9778.92806 EV  POINT GROUP:     Cs  
          CORE-CORE REPULSION     =       7755.23967 EV
          COSMO AREA              =        168.03 SQUARE ANGSTROMS
          COSMO VOLUME            =        167.28 CUBIC ANGSTROMS

          GRADIENT NORM           =          0.62173 = 0.14654 PER ATOM
          IONIZATION POTENTIAL    =          9.764388 EV
          HOMO LUMO ENERGIES (EV) =         -9.764 -1.320
          NO. OF FILLED LEVELS    =         29
          MOLECULAR WEIGHT        =        153.1372

          MOLECULAR DIMENSIONS (Angstroms)

            Atom       Atom       Distance
            H    13    O     8     6.05524
            H    17    H    15     5.93535
            H    18    H    16     1.76230


          SCF CALCULATIONS        =         22
 
          WALL-CLOCK TIME         =          0.500 SECONDS
          COMPUTATION TIME        =          0.562 SECONDS




  ATOM    CHEMICAL      BOND LENGTH      BOND ANGLE     TWIST ANGLE 
 NUMBER    SYMBOL       (ANGSTROMS)      (DEGREES)       (DEGREES) 
   (I)                     NA:I           NB:NA:I       NC:NB:NA:I       NA    NB    NC 
     1       C          0.00000000       0.0000000       0.0000000        0     0     0
     2       C          1.40099365  *    0.0000000       0.0000000        1     0     0
     3       C          1.38074183  *  120.6405421  *    0.0000000        2     1     0
     4       C          1.40660339  *  118.9569662  *    0.0502646  *     3     2     1
     5       C          1.41717666  *  121.2942070  *   -0.3711580  *     4     3     2
     6       C          1.38946394  *  121.2749599  *    0.2118070  *     1     2     3
     7       N          1.42951864  *  120.0997891  * -179.5823796  *     5     4     3
     8       O          1.21584594  *  120.6471655  * -177.9580100  *     7     5     4
     9       O          1.24019352  *  118.5129800  *    1.8349025  *     7     5     4
    10       O          1.33108125  *  114.7797049  *  179.4999930  *     4     3     2
    11       C          1.48504798  *  118.7288043  *  179.6719939  *     6     1     2
    12       H          1.08835103  *  118.9188988  * -179.8480668  *     1     2     3
    13       H          1.09290501  *  119.2773184  * -179.7282431  *     2     1     6
    14       H          1.08871030  *  122.1239180  *  179.9420677  *     3     2     1
    15       H          1.02443196  *  111.7525053  *  179.2089016  *    10     4     3
    16       H          1.10507219  *  111.7805468  * -120.5465304  *    11     6     1
    17       H          1.09857487  *  113.1781281  *    0.3350815  *    11     6     1
    18       H          1.10543774  *  111.7998068  *  121.1263053  *    11     6     1

                             CARTESIAN COORDINATES

   1    C        0.000000000     0.000000000     0.000000000
   2    C        1.400993650     0.000000000     0.000000000
   3    C        2.104689200     1.187964892     0.000000000
   4    C        1.392848036     2.401148349     0.001079720
   5    C       -0.024140589     2.423219624    -0.005685548
   6    C       -0.721334142     1.187546978    -0.004390061
   7    N       -0.721677835     3.670979805    -0.013422486
   8    O       -1.936721976     3.701985531     0.018005702
   9    O       -0.059663560     4.719100253    -0.048927185
  10    O        2.152821995     3.493900576     0.011541043
  11    C       -2.204897783     1.121558918    -0.011601206
  12    H       -0.526295134    -0.952635829     0.002526144
  13    H        1.935464843    -0.953300010    -0.000997459
  14    H        3.193034243     1.216148469     0.000932272
  15    H        1.588613951     4.348866240    -0.001259121
  16    H       -2.633376394     1.623728265    -0.897838518
  17    H       -2.592013507     0.093460904    -0.006844026
  18    H       -2.642880466     1.633995319     0.864511058


           Empirical Formula: C7 H7 N O3  =    18 atoms



      MOLECULAR POINT GROUP   :   Cs  


                  EIGENVALUES  
 -37.32241 -31.78711 -31.11589 -30.13616 -28.10649 -27.14692 -24.99698 -24.05537
 -21.98654 -21.03599 -19.05030 -18.41253 -17.70928 -17.53735 -16.93231 -15.97617
 -15.24402 -14.96292 -14.69072 -14.59997 -13.83325 -13.28252 -12.86051 -12.68440
 -11.61464 -11.45645 -11.23944 -10.77184  -9.76439  -1.32042  -0.31970   0.28539
   0.59290   1.73372   1.93417   2.75078   3.40164   3.65969   3.74758   4.09999
   4.26299   4.35836   4.73651   4.98066   5.14924   5.16020   5.24387   5.43381
   5.67303   5.81989   6.36554


              NET ATOMIC CHARGES AND DIPOLE CONTRIBUTIONS

  ATOM NO.   TYPE          CHARGE      No. of ELECS.   s-Pop       p-Pop       
    1          C          -0.306047        4.3060     1.07479     3.23126
    2          C           0.009201        3.9908     1.09311     2.89769
    3          C          -0.311517        4.3115     1.07318     3.23833
    4          C           0.400146        3.5999     1.08594     2.51391
    5          C          -0.316941        4.3169     1.06199     3.25495
    6          C           0.201341        3.7987     1.07566     2.72300
    7          N           0.671203        4.3288     1.43980     2.88900
    8          O          -0.371593        6.3716     1.94033     4.43126
    9          O          -0.484187        6.4842     1.94137     4.54282
   10          O          -0.452644        6.4526     1.84286     4.60979
   11          C          -0.468307        4.4683     1.05154     3.41677
   12          H           0.169299        0.8307     0.83070
   13          H           0.154179        0.8458     0.84582
   14          H           0.189264        0.8107     0.81074
   15          H           0.380648        0.6194     0.61935
   16          H           0.187029        0.8130     0.81297
   17          H           0.160691        0.8393     0.83931
   18          H           0.188234        0.8118     0.81177
 DIPOLE           X         Y         Z       TOTAL
 POINT-CHG.     0.534    -4.985     0.016     5.014
 HYBRID        -0.249     1.032    -0.004     1.061
 SUM            0.285    -3.954     0.011     3.964


          ATOMIC ORBITAL ELECTRON POPULATIONS

     Atom    s        px        py        pz   
    1  C   1.07479   1.01413   1.06902   1.14810
    2  C   1.09311   0.99781   1.05007   0.84981
    3  C   1.07318   1.10857   0.96994   1.15982
    4  C   1.08594   0.87469   0.85313   0.78610
    5  C   1.06199   0.98560   0.91937   1.34998
    6  C   1.07566   0.96717   0.93509   0.82074
    7  N   1.43980   0.97743   0.98596   0.92561
    8  O   1.94033   0.98058   1.92066   1.53003
    9  O   1.94137   1.64590   1.26940   1.62752
   10  O   1.84286   1.46286   1.30981   1.83712
   11  C   1.05154   1.01480   1.19435   1.20762
   12  H   0.83070
   13  H   0.84582
   14  H   0.81074
   15  H   0.61935
   16  H   0.81297
   17  H   0.83931
   18  H   0.81177

 **********************
 *                    *
 * JOB ENDED NORMALLY *
 *                    *
 **********************



 TOTAL JOB TIME:             0.50 SECONDS

 == MOPAC DONE ==
