 *******************************************************************************
 ** Site#: 32691        For non-commercial use only    Version 19.179W 32BITS **
 *******************************************************************************
 ** Cite this program as: MOPAC2016, Version: 19.179W, James J. P. Stewart,   **
 ** Stewart Computational Chemistry, web: HTTP://OpenMOPAC.net. Days left: 337**
 *******************************************************************************
 **                                                                           **
 **                                MOPAC2016                                  **
 **                                                                           **
 *******************************************************************************

                              PM7 CALCULATION RESULTS

 *******************************************************************************
 *  CALCULATION DONE:                                Fri Jul 26 15:28:02 2019  *
 *  T=         - A TIME OF 172800.0 SECONDS REQUESTED
 *  DUMP=N     - RESTART FILE WRITTEN EVERY  7200.000 SECONDS
 *******************************************************************************

 3-methyl-4-nitrobenzoic acid.mop

  ATOM    CHEMICAL      BOND LENGTH      BOND ANGLE     TWIST ANGLE 
 NUMBER    SYMBOL       (ANGSTROMS)      (DEGREES)       (DEGREES) 
   (I)                     NA:I           NB:NA:I       NC:NB:NA:I       NA    NB    NC 
     1       C          0.00000000       0.0000000       0.0000000        0     0     0
     2       C          1.34154000  *    0.0000000       0.0000000        1     0     0
     3       C          1.35262800  *  123.3590230  *    0.0000000        2     1     0
     4       C          1.35421400  *  117.1790580  *    0.0345130  *     3     2     1
     5       C          1.34764300  *  118.8792120  *   -0.0462700  *     4     3     2
     6       C          1.33966800  *  119.3897080  *    0.0151750  *     1     2     3
     7       C          1.36170500  *  122.3488990  *  179.9066240  *     6     1     2
     8       O          1.21231600  *  125.9192130  *   -0.0214670  *     7     6     1
     9       O          1.35965800  *  121.2170650  * -179.8791540  *     7     6     1
    10       N          1.25905800  *  117.7087220  * -179.9542070  *     3     2     1
    11       O          1.30948500  *  127.2241320  * -179.9895980  *    10     3     2
    12       C          1.52030700  *  127.0050320  *  179.9918530  *     4     3     2
    13       O          1.31300500  *  122.7445480  *    0.0667200  *    10     3     2
    14       H          1.10291200  *  119.0292240  *  179.9600860  *     1     2     3
    15       H          1.10428900  *  114.8900570  * -179.9577880  *     2     1     6
    16       H          1.10309400  *  116.8055140  * -179.9599770  *     5     4     3
    17       H          0.97066500  *  108.1774360  *  179.3256290  *     9     7     6
    18       H          1.10407400  *  118.1694680  *   -0.1717770  *    12     4     3
    19       H          1.11451500  *  109.7314960  *  120.6299700  *    12     4     3
    20       H          1.11450600  *  109.7421330  * -120.9287340  *    12     4     3
 


          CARTESIAN COORDINATES 

    NO.       ATOM           X           Y           Z

     1         C          0.0000      0.0000      0.0000
     2         C          1.3415      0.0000      0.0000
     3         C          2.0853      1.1298      0.0000
     4         C          1.4193      2.3089      0.0007
     5         C          0.0717      2.2952      0.0004
     6         C         -0.6574      1.1673     -0.0003
     7         C         -2.0173      1.2376     -0.0022
     8         O         -2.7783      0.2938     -0.0042
     9         O         -2.6610      2.4352     -0.0049
    10         N          3.3383      1.0058     -0.0009
    11         O          4.2292      1.9655     -0.0009
    12         C          2.0263      3.7027      0.0011
    13         O          3.9363     -0.1631     -0.0031
    14         H         -0.5352     -0.9644     -0.0007
    15         H          1.8063     -1.0017     -0.0005
    16         H         -0.4358      3.2746      0.0004
    17         H         -3.6167      2.2653     -0.0168
    18         H          3.1267      3.7920      0.0036
    19         H          1.6861      4.2615     -0.9013
    20         H          1.6826      4.2628      0.9012

 General Reference for PM7:
 "Optimization of Parameters for Semiempirical Methods VI: More Modifications to the 
 NDDO Approximations and Re-optimization of Parameters", J. J. P. Stewart, J. Mol. Mod., 1:32, 19 (2013)
 http://www.springerlink.com/openurl.asp?genre=article&id=doi:10.1007/s00894-012-1667-x

           Empirical Formula: C8 H7 N O4  =    20 atoms



      MOLECULAR POINT GROUP   :   Cs  


      RHF CALCULATION, NO. OF DOUBLY OCCUPIED LEVELS = 34


          Geometry optimization using EF

          DIAGONAL MATRIX USED AS START HESSIAN

 CYCLE:     1 TIME:   0.047 TIME LEFT:  2.00D  GRAD.:   629.268 HEAT: -13.30935
 CYCLE:     2 TIME:   0.094 TIME LEFT:  2.00D  GRAD.:   618.615 HEAT: -18.80193
 CYCLE:     3 TIME:   0.062 TIME LEFT:  2.00D  GRAD.:   291.720 HEAT: -56.72840
 CYCLE:     4 TIME:   0.016 TIME LEFT:  2.00D  GRAD.:   940.944 HEAT: -60.00611
 CYCLE:     5 TIME:   0.031 TIME LEFT:  2.00D  GRAD.:   336.143 HEAT: -69.05409
 CYCLE:     6 TIME:   0.016 TIME LEFT:  2.00D  GRAD.:   151.497 HEAT: -73.02376
 CYCLE:     7 TIME:   0.016 TIME LEFT:  2.00D  GRAD.:    28.827 HEAT: -75.39347
 CYCLE:     8 TIME:   0.016 TIME LEFT:  2.00D  GRAD.:    26.423 HEAT: -75.65223
 CYCLE:     9 TIME:   0.016 TIME LEFT:  2.00D  GRAD.:    16.576 HEAT: -75.87733
 CYCLE:    10 TIME:   0.016 TIME LEFT:  2.00D  GRAD.:    11.590 HEAT: -76.07377
 CYCLE:    11 TIME:   0.031 TIME LEFT:  2.00D  GRAD.:     7.196 HEAT: -76.12334
 CYCLE:    12 TIME:   0.016 TIME LEFT:  2.00D  GRAD.:     8.496 HEAT: -76.13191
 CYCLE:    13 TIME:   0.016 TIME LEFT:  2.00D  GRAD.:     2.115 HEAT: -76.16306
 CYCLE:    14 TIME:   0.016 TIME LEFT:  2.00D  GRAD.:     1.509 HEAT: -76.16478
 CYCLE:    15 TIME:   0.016 TIME LEFT:  2.00D  GRAD.:     0.793 HEAT: -76.16624

     GRADIENT =  0.79312 IS LESS THAN CUTOFF =  1.00000



 -------------------------------------------------------------------------------

 3-methyl-4-nitrobenzoic acid.mop



     GEOMETRY OPTIMISED USING EIGENVECTOR FOLLOWING (EF).     
     SCF FIELD WAS ACHIEVED                                   


                              PM7 CALCULATION
                                                       MOPAC2016 (Version: 19.179W)
                                                       Fri Jul 26 15:28:02 2019
                                                       No. of days remaining = 337




          FINAL HEAT OF FORMATION =        -76.16624 KCAL/MOL =    -318.67956 KJ/MOL


          TOTAL ENERGY            =      -2441.91767 EV
          ELECTRONIC ENERGY       =     -12111.41472 EV  POINT GROUP:     Cs  
          CORE-CORE REPULSION     =       9669.49705 EV
          COSMO AREA              =        193.79 SQUARE ANGSTROMS
          COSMO VOLUME            =        194.58 CUBIC ANGSTROMS

          GRADIENT NORM           =          0.79312 = 0.17735 PER ATOM
          IONIZATION POTENTIAL    =         10.588463 EV
          HOMO LUMO ENERGIES (EV) =        -10.588 -1.849
          NO. OF FILLED LEVELS    =         34
          MOLECULAR WEIGHT        =        181.1476

          MOLECULAR DIMENSIONS (Angstroms)

            Atom       Atom       Distance
            H    17    O    13     8.08710
            H    14    H    19     5.83148
            H    19    H    20     1.75285


          SCF CALCULATIONS        =         19
 
          WALL-CLOCK TIME         =          0.434 SECONDS
          COMPUTATION TIME        =          0.671 SECONDS




  ATOM    CHEMICAL      BOND LENGTH      BOND ANGLE     TWIST ANGLE 
 NUMBER    SYMBOL       (ANGSTROMS)      (DEGREES)       (DEGREES) 
   (I)                     NA:I           NB:NA:I       NC:NB:NA:I       NA    NB    NC 
     1       C          0.00000000       0.0000000       0.0000000        0     0     0
     2       C          1.38435799  *    0.0000000       0.0000000        1     0     0
     3       C          1.40685862  *  120.3074218  *    0.0000000        2     1     0
     4       C          1.39970276  *  121.0529236  *   -0.0102820  *     3     2     1
     5       C          1.40783808  *  117.8069970  *   -0.0335740  *     4     3     2
     6       C          1.40003224  *  119.0843480  *   -0.0101079  *     1     2     3
     7       C          1.47711204  *  117.6832371  *  179.9731789  *     6     1     2
     8       O          1.20334531  *  127.6732087  *    0.0364160  *     7     6     1
     9       O          1.35819482  *  111.6146869  * -179.9224288  *     7     6     1
    10       N          1.46037703  *  115.5648514  * -179.9622099  *     3     2     1
    11       O          1.21864041  *  120.1828845  * -179.9664906  *    10     3     2
    12       C          1.48487424  *  126.1204805  *  179.9525524  *     4     3     2
    13       O          1.22230368  *  117.3441980  *    0.0448670  *    10     3     2
    14       H          1.09439030  *  120.9191912  *  179.9987111  *     1     2     3
    15       H          1.09800124  *  119.8777854  * -179.9852250  *     2     1     6
    16       H          1.09531135  *  119.1728267  * -179.9797076  *     5     4     3
    17       H          0.99177609  *  113.1127904  *  179.7605161  *     9     7     6
    18       H          1.10153872  *  115.2566494  *   -0.1842417  *    12     4     3
    19       H          1.10286567  *  111.2594190  *  120.1771083  *    12     4     3
    20       H          1.10286377  *  111.2732049  * -120.5538210  *    12     4     3

                             CARTESIAN COORDINATES

   1    C        0.000000000     0.000000000     0.000000000
   2    C        1.384357990     0.000000000     0.000000000
   3    C        2.094314362     1.214583518     0.000000000
   4    C        1.423437688     2.443034679    -0.000215187
   5    C        0.015748586     2.422575852    -0.001161123
   6    C       -0.680551006     1.223495223     0.000215843
   7    C       -2.157221284     1.187377706    -0.000402838
   8    O       -2.869145345     0.217220988    -0.000480625
   9    O       -2.688254260     2.437455752    -0.001824609
  10    N        3.549691150     1.093841178    -0.000868908
  11    O        4.247375519     2.093001162    -0.000317528
  12    C        2.056600534     3.786148742     0.000754560
  13    O        4.019448152    -0.034587998    -0.002362192
  14    H       -0.562329072    -0.938869612    -0.000021120
  15    H        1.931329054    -0.952065757    -0.000413470
  16    H       -0.531997636     3.371090875    -0.001685900
  17    H       -3.680019810     2.439134274    -0.006077420
  18    H        3.158131291     3.786472569     0.004929430
  19    H        1.760569283     4.368439749    -0.887848484
  20    H        1.753881682     4.370584491     0.885686567


           Empirical Formula: C8 H7 N O4  =    20 atoms



      MOLECULAR POINT GROUP   :   Cs  


                  EIGENVALUES  
 -37.38754 -32.23569 -31.74563 -30.81539 -30.47600 -28.42007 -27.86110 -25.85772
 -24.53965 -22.78165 -21.99330 -20.40394 -19.02494 -18.39461 -17.69538 -17.50297
 -17.41157 -16.45174 -16.20585 -15.76080 -15.29038 -15.09197 -14.75371 -14.01679
 -13.73829 -13.55647 -13.06245 -12.60994 -11.69842 -11.51760 -11.38251 -11.18069
 -11.10215 -10.58846  -1.84895  -0.80719  -0.09144   0.46207   0.74718   1.44900
   1.59915   2.62068   2.83503   3.24574   3.60094   3.74934   3.80728   3.87946
   4.07863   4.26927   4.58940   4.81023   4.94270   5.00704   5.07600   5.18190
   5.31289   5.32659   6.29306


              NET ATOMIC CHARGES AND DIPOLE CONTRIBUTIONS

  ATOM NO.   TYPE          CHARGE      No. of ELECS.   s-Pop       p-Pop       
    1          C          -0.129203        4.1292     1.08716     3.04204
    2          C          -0.100839        4.1008     1.09223     3.00861
    3          C          -0.080104        4.0801     1.08148     2.99862
    4          C           0.098740        3.9013     1.07345     2.82781
    5          C          -0.142094        4.1421     1.09138     3.05072
    6          C          -0.075971        4.0760     1.07293     3.00304
    7          C           0.627272        3.3727     1.10714     2.26559
    8          O          -0.478775        6.4788     1.87814     4.60064
    9          O          -0.553509        6.5535     1.83955     4.71396
   10          N           0.623766        4.3762     1.45234     2.92390
   11          O          -0.396846        6.3968     1.94049     4.45636
   12          C          -0.473001        4.4730     1.04987     3.42313
   13          O          -0.397032        6.3970     1.94212     4.45492
   14          H           0.188157        0.8118     0.81184
   15          H           0.195467        0.8045     0.80453
   16          H           0.187722        0.8123     0.81228
   17          H           0.361986        0.6380     0.63801
   18          H           0.198226        0.8018     0.80177
   19          H           0.173063        0.8269     0.82694
   20          H           0.172972        0.8270     0.82703
 DIPOLE           X         Y         Z       TOTAL
 POINT-CHG.    -2.762     2.347    -0.004     3.624
 HYBRID        -0.204     0.116    -0.001     0.235
 SUM           -2.966     2.463    -0.005     3.856


          ATOMIC ORBITAL ELECTRON POPULATIONS

     Atom    s        px        py        pz   
    1  C   1.08716   1.00419   1.05800   0.97985
    2  C   1.09223   1.00707   1.05378   0.94776
    3  C   1.08148   0.86577   1.00770   1.12515
    4  C   1.07345   0.96925   0.95955   0.89901
    5  C   1.09138   1.00024   1.06779   0.98268
    6  C   1.07293   0.97095   1.00269   1.02940
    7  C   1.10714   0.85794   0.73677   0.67088
    8  O   1.87814   1.64944   1.45727   1.49392
    9  O   1.83955   1.40546   1.44234   1.86616
   10  N   1.45234   1.00863   0.97286   0.94241
   11  O   1.94049   1.62620   1.28294   1.54722
   12  C   1.04987   1.20073   1.03557   1.18684
   13  O   1.94212   1.79419   1.11470   1.54603
   14  H   0.81184
   15  H   0.80453
   16  H   0.81228
   17  H   0.63801
   18  H   0.80177
   19  H   0.82694
   20  H   0.82703

 **********************
 *                    *
 * JOB ENDED NORMALLY *
 *                    *
 **********************



 TOTAL JOB TIME:             0.45 SECONDS

 == MOPAC DONE ==
