 *******************************************************************************
 ** Site#: 32691        For non-commercial use only    Version 19.179W 32BITS **
 *******************************************************************************
 ** Cite this program as: MOPAC2016, Version: 19.179W, James J. P. Stewart,   **
 ** Stewart Computational Chemistry, web: HTTP://OpenMOPAC.net. Days left: 339**
 *******************************************************************************
 **                                                                           **
 **                                MOPAC2016                                  **
 **                                                                           **
 *******************************************************************************

                              PM7 CALCULATION RESULTS

 *******************************************************************************
 *  CALCULATION DONE:                                Wed Jul 24 15:33:07 2019  *
 *  T=         - A TIME OF 172800.0 SECONDS REQUESTED
 *  DUMP=N     - RESTART FILE WRITTEN EVERY  7200.000 SECONDS
 *******************************************************************************

 3-methyl-2-nitrophenol.mop

  ATOM    CHEMICAL      BOND LENGTH      BOND ANGLE     TWIST ANGLE 
 NUMBER    SYMBOL       (ANGSTROMS)      (DEGREES)       (DEGREES) 
   (I)                     NA:I           NB:NA:I       NC:NB:NA:I       NA    NB    NC 
     1       C          0.00000000       0.0000000       0.0000000        0     0     0
     2       C          1.33566000  *    0.0000000       0.0000000        1     0     0
     3       C          1.33627400  *  118.3186280  *    0.0000000        2     1     0
     4       C          1.34657400  *  121.5502920  *   -0.5442470  *     3     2     1
     5       C          1.35865600  *  119.9082210  *   -0.1608160  *     4     3     2
     6       C          1.34523500  *  122.0224170  *    0.9823830  *     1     2     3
     7       O          1.36924500  *  116.0774730  * -177.5277230  *     6     1     2
     8       C          1.51963900  *  115.7647170  * -179.7844750  *     4     3     2
     9       N          1.26171700  *  121.6247440  * -178.4579310  *     5     4     3
    10       O          1.31208200  *  124.1157380  *  173.9374950  *     9     5     4
    11       O          1.31175300  *  126.3380810  *   -1.5602180  *     9     5     4
    12       H          1.10357500  *  118.4585150  * -178.4451180  *     1     2     3
    13       H          1.10262200  *  120.7888340  * -179.9478850  *     2     1     6
    14       H          1.10283600  *  117.5854290  *  179.4470800  *     3     2     1
    15       H          0.97163600  *  106.9605470  *    2.3069260  *     7     6     1
    16       H          1.11261500  *  113.2327990  *   -0.8541670  *     8     4     3
    17       H          1.11354900  *  111.2179320  *  117.1808720  *     8     4     3
    18       H          1.11354000  *  111.2091590  * -118.7924330  *     8     4     3
 


          CARTESIAN COORDINATES 

    NO.       ATOM           X           Y           Z

     1         C          0.0000      0.0000      0.0000
     2         C          1.3357      0.0000      0.0000
     3         C          1.9696      1.1764      0.0000
     4         C          1.2936      2.3410     -0.0109
     5         C         -0.0649      2.3356     -0.0255
     6         C         -0.7133      1.1404     -0.0196
     7         O         -2.0742      1.0001      0.0359
     8         C          2.1457      3.5992     -0.0146
     9         N         -0.7303      3.4069     -0.0650
    10         O         -2.0349      3.4585     -0.1955
    11         O         -0.2432      4.6248     -0.0674
    12         H         -0.5259     -0.9699      0.0263
    13         H          1.9001     -0.9471      0.0154
    14         H          3.0723      1.1623      0.0094
    15         H         -2.2581      0.0496      0.1182
    16         H          3.2382      3.3895      0.0076
    17         H          1.9838      4.1929     -0.9427
    18         H          1.9530      4.2189      0.8903

 General Reference for PM7:
 "Optimization of Parameters for Semiempirical Methods VI: More Modifications to the 
 NDDO Approximations and Re-optimization of Parameters", J. J. P. Stewart, J. Mol. Mod., 1:32, 19 (2013)
 http://www.springerlink.com/openurl.asp?genre=article&id=doi:10.1007/s00894-012-1667-x

           Empirical Formula: C7 H7 N O3  =    18 atoms



      MOLECULAR POINT GROUP   :   C1  


      RHF CALCULATION, NO. OF DOUBLY OCCUPIED LEVELS = 29


          Geometry optimization using EF

          DIAGONAL MATRIX USED AS START HESSIAN

 CYCLE:     1 TIME:   0.016 TIME LEFT:  2.00D  GRAD.:   619.326 HEAT:  21.18142
 CYCLE:     2 TIME:   0.059 TIME LEFT:  2.00D  GRAD.:   597.094 HEAT:  20.82251
 CYCLE:     3 TIME:   0.020 TIME LEFT:  2.00D  GRAD.:   315.825 HEAT: -15.84793
 CYCLE:     4 TIME:   0.012 TIME LEFT:  2.00D  GRAD.:   871.741 HEAT: -16.19474
 CYCLE:     5 TIME:   0.020 TIME LEFT:  2.00D  GRAD.:   167.794 HEAT: -29.71662
 CYCLE:     6 TIME:   0.016 TIME LEFT:  2.00D  GRAD.:   114.331 HEAT: -29.80383
 CYCLE:     7 TIME:   0.012 TIME LEFT:  2.00D  GRAD.:    85.239 HEAT: -30.18496
 CYCLE:     8 TIME:   0.000 TIME LEFT:  2.00D  GRAD.:    68.941 HEAT: -31.09918
 CYCLE:     9 TIME:   0.020 TIME LEFT:  2.00D  GRAD.:    52.807 HEAT: -31.24055
 CYCLE:    10 TIME:   0.012 TIME LEFT:  2.00D  GRAD.:    32.471 HEAT: -31.65655
 CYCLE:    11 TIME:   0.016 TIME LEFT:  2.00D  GRAD.:    13.458 HEAT: -31.88219
 CYCLE:    12 TIME:   0.020 TIME LEFT:  2.00D  GRAD.:     2.918 HEAT: -31.91217
 CYCLE:    13 TIME:   0.012 TIME LEFT:  2.00D  GRAD.:     2.739 HEAT: -31.92639
 CYCLE:    14 TIME:   0.020 TIME LEFT:  2.00D  GRAD.:     1.842 HEAT: -31.93866
 CYCLE:    15 TIME:   0.012 TIME LEFT:  2.00D  GRAD.:     1.147 HEAT: -31.94101
 CYCLE:    16 TIME:   0.016 TIME LEFT:  2.00D  GRAD.:     1.468 HEAT: -31.94546
 CYCLE:    17 TIME:   0.000 TIME LEFT:  2.00D  GRAD.:     3.041 HEAT: -31.95380
 CYCLE:    18 TIME:   0.020 TIME LEFT:  2.00D  GRAD.:     3.009 HEAT: -31.96423
 CYCLE:    19 TIME:   0.012 TIME LEFT:  2.00D  GRAD.:     1.633 HEAT: -31.98643
 CYCLE:    20 TIME:   0.016 TIME LEFT:  2.00D  GRAD.:     1.440 HEAT: -32.00068
 CYCLE:    21 TIME:   0.016 TIME LEFT:  2.00D  GRAD.:     1.194 HEAT: -32.00421
 CYCLE:    22 TIME:   0.016 TIME LEFT:  2.00D  GRAD.:     0.950 HEAT: -32.00508

     GRADIENT =  0.94962 IS LESS THAN CUTOFF =  1.00000



 -------------------------------------------------------------------------------

 3-methyl-2-nitrophenol.mop



     GEOMETRY OPTIMISED USING EIGENVECTOR FOLLOWING (EF).     
     SCF FIELD WAS ACHIEVED                                   


                              PM7 CALCULATION
                                                       MOPAC2016 (Version: 19.179W)
                                                       Wed Jul 24 15:33:08 2019
                                                       No. of days remaining = 339




          FINAL HEAT OF FORMATION =        -32.00508 KCAL/MOL =    -133.90927 KJ/MOL


          TOTAL ENERGY            =      -2023.41486 EV
          ELECTRONIC ENERGY       =      -9761.88046 EV  POINT GROUP:     C1  
          CORE-CORE REPULSION     =       7738.46561 EV
          COSMO AREA              =        169.29 SQUARE ANGSTROMS
          COSMO VOLUME            =        168.50 CUBIC ANGSTROMS

          GRADIENT NORM           =          0.94962 = 0.22383 PER ATOM
          IONIZATION POTENTIAL    =          9.837805 EV
          HOMO LUMO ENERGIES (EV) =         -9.838 -1.083
          NO. OF FILLED LEVELS    =         29
          MOLECULAR WEIGHT        =        153.1372

          MOLECULAR DIMENSIONS (Angstroms)

            Atom       Atom       Distance
            H    16    H    15     6.54509
            H    13    O    11     5.96936
            H    18    H    17     1.75786


          SCF CALCULATIONS        =         25
 
          WALL-CLOCK TIME         =          0.793 SECONDS
          COMPUTATION TIME        =          0.702 SECONDS




  ATOM    CHEMICAL      BOND LENGTH      BOND ANGLE     TWIST ANGLE 
 NUMBER    SYMBOL       (ANGSTROMS)      (DEGREES)       (DEGREES) 
   (I)                     NA:I           NB:NA:I       NC:NB:NA:I       NA    NB    NC 
     1       C          0.00000000       0.0000000       0.0000000        0     0     0
     2       C          1.38814206  *    0.0000000       0.0000000        1     0     0
     3       C          1.39286853  *  120.4244620  *    0.0000000        2     1     0
     4       C          1.39771646  *  121.2603861  *    0.0582933  *     3     2     1
     5       C          1.41197860  *  119.3280008  *   -0.6834257  *     4     3     2
     6       C          1.39948506  *  118.8354473  *    0.1735859  *     1     2     3
     7       O          1.34478166  *  121.0081267  * -179.1777673  *     6     1     2
     8       C          1.48436045  *  118.2117184  *  179.8711588  *     4     3     2
     9       N          1.44513155  *  121.3883607  * -179.4216185  *     5     4     3
    10       O          1.21736241  *  119.5407089  *  171.2704224  *     9     5     4
    11       O          1.22551899  *  118.2946279  *   -8.2996947  *     9     5     4
    12       H          1.08512969  *  120.6943021  * -179.8988673  *     1     2     3
    13       H          1.09233162  *  119.8152718  * -179.8082434  *     2     1     6
    14       H          1.08866179  *  119.3147861  * -179.9809517  *     3     2     1
    15       H          0.99616196  *  112.2271569  *   -0.6551268  *     7     6     1
    16       H          1.09754756  *  113.4029467  *    1.2111251  *     8     4     3
    17       H          1.10580283  *  111.8346311  *  122.6456033  *     8     4     3
    18       H          1.10703583  *  111.5380323  * -119.8565007  *     8     4     3

                             CARTESIAN COORDINATES

   1    C        0.000000000     0.000000000     0.000000000
   2    C        1.388142055     0.000000000     0.000000000
   3    C        2.093493411     1.201067113     0.000000000
   4    C        1.430527626     2.431549207     0.001215595
   5    C        0.018834397     2.456557007    -0.012216154
   6    C       -0.674965668     1.225955134    -0.003714220
   7    O       -2.018676603     1.277044699     0.012671151
   8    C        2.249220110     3.669717362     0.004076641
   9    N       -0.711796161     3.703330930    -0.024005036
  10    O       -1.916873275     3.691210366    -0.196090699
  11    O       -0.085744929     4.745020437     0.133600905
  12    H       -0.553912486    -0.933104866     0.001647023
  13    H        1.931255060    -0.947742864    -0.000300566
  14    H        3.181950981     1.179983803    -0.000315584
  15    H       -2.430251207     0.369888908     0.016328357
  16    H        3.329694284     3.477962412    -0.016325603
  17    H        2.015128531     4.319554449    -0.859469992
  18    H        2.044781610     4.290052557     0.897898480


           Empirical Formula: C7 H7 N O3  =    18 atoms



      MOLECULAR POINT GROUP   :   C1  


                  EIGENVALUES  
 -36.81368 -31.79835 -31.01196 -30.03829 -27.87211 -27.02274 -24.78891 -23.92515
 -21.63686 -21.24001 -18.60836 -18.25689 -17.68454 -17.10067 -16.56787 -16.15598
 -15.14872 -15.10306 -14.55457 -14.46614 -13.52047 -13.19705 -12.95697 -12.68314
 -10.93713 -10.76088 -10.68401 -10.59374  -9.83781  -1.08251  -0.39191   0.69605
   1.00072   1.77801   1.80440   2.94933   3.44686   3.74112   3.86427   4.09615
   4.24376   4.70121   4.86458   5.06664   5.20578   5.32608   5.39231   5.41950
   5.45522   5.72063   6.52813


              NET ATOMIC CHARGES AND DIPOLE CONTRIBUTIONS

  ATOM NO.   TYPE          CHARGE      No. of ELECS.   s-Pop       p-Pop       
    1          C          -0.364899        4.3649     1.07300     3.29190
    2          C           0.007816        3.9922     1.09061     2.90157
    3          C          -0.297757        4.2978     1.07635     3.22140
    4          C           0.196715        3.8033     1.07845     2.72484
    5          C          -0.239920        4.2399     1.06354     3.17638
    6          C           0.354521        3.6455     1.08408     2.56140
    7          O          -0.394678        6.3947     1.84214     4.55253
    8          C          -0.465567        4.4656     1.05133     3.41423
    9          N           0.654798        4.3452     1.44023     2.90497
   10          O          -0.367452        6.3675     1.94121     4.42624
   11          O          -0.443880        6.4439     1.94197     4.50191
   12          H           0.171079        0.8289     0.82892
   13          H           0.152401        0.8476     0.84760
   14          H           0.169364        0.8306     0.83064
   15          H           0.326553        0.6734     0.67345
   16          H           0.157309        0.8427     0.84269
   17          H           0.189676        0.8103     0.81032
   18          H           0.193923        0.8061     0.80608
 DIPOLE           X         Y         Z       TOTAL
 POINT-CHG.     3.355    -5.136     0.029     6.134
 HYBRID        -0.728     0.052     0.004     0.730
 SUM            2.626    -5.084     0.033     5.722


          ATOMIC ORBITAL ELECTRON POPULATIONS

     Atom    s        px        py        pz   
    1  C   1.07300   1.03578   1.05710   1.19902
    2  C   1.09061   0.98982   1.05385   0.85790
    3  C   1.07635   1.10076   0.98265   1.13799
    4  C   1.07845   0.93071   0.97912   0.81501
    5  C   1.06354   0.98213   0.90718   1.28707
    6  C   1.08408   0.78762   0.94928   0.82449
    7  O   1.84214   1.25955   1.43040   1.86258
    8  C   1.05133   1.12662   1.07369   1.21393
    9  N   1.44023   0.97827   0.98585   0.94084
   10  O   1.94121   0.98571   1.91836   1.52218
   11  O   1.94197   1.67042   1.25780   1.57370
   12  H   0.82892
   13  H   0.84760
   14  H   0.83064
   15  H   0.67345
   16  H   0.84269
   17  H   0.81032
   18  H   0.80608

 **********************
 *                    *
 * JOB ENDED NORMALLY *
 *                    *
 **********************



 TOTAL JOB TIME:             0.81 SECONDS

 == MOPAC DONE ==
