 *******************************************************************************
 ** Site#: 32691        For non-commercial use only    Version 19.179W 32BITS **
 *******************************************************************************
 ** Cite this program as: MOPAC2016, Version: 19.179W, James J. P. Stewart,   **
 ** Stewart Computational Chemistry, web: HTTP://OpenMOPAC.net. Days left: 337**
 *******************************************************************************
 **                                                                           **
 **                                MOPAC2016                                  **
 **                                                                           **
 *******************************************************************************

                              PM7 CALCULATION RESULTS

 *******************************************************************************
 *  CALCULATION DONE:                                Fri Jul 26 15:01:06 2019  *
 *  T=         - A TIME OF 172800.0 SECONDS REQUESTED
 *  DUMP=N     - RESTART FILE WRITTEN EVERY  7200.000 SECONDS
 *******************************************************************************

 3-nitrobenzoic acid2.mop

  ATOM    CHEMICAL      BOND LENGTH      BOND ANGLE     TWIST ANGLE 
 NUMBER    SYMBOL       (ANGSTROMS)      (DEGREES)       (DEGREES) 
   (I)                     NA:I           NB:NA:I       NC:NB:NA:I       NA    NB    NC 
     1       C          0.00000000       0.0000000       0.0000000        0     0     0
     2       C          1.34928400  *    0.0000000       0.0000000        1     0     0
     3       C          1.34659800  *  117.5491930  *    0.0000000        2     1     0
     4       C          1.34153300  *  120.8495950  *    0.1490460  *     3     2     1
     5       C          1.34136600  *  120.5257640  *    0.0787370  *     4     3     2
     6       C          1.34518700  *  122.5300090  *   -0.2932680  *     1     2     3
     7       C          1.36479000  *  119.6977030  * -179.6190790  *     6     1     2
     8       O          1.35711000  *  122.9884600  *   -0.2451280  *     7     6     1
     9       N          1.25793900  *  120.6825050  *  179.6309870  *     2     1     6
    10       O          1.31252800  *  123.7218310  * -179.8879610  *     9     2     1
    11       O          1.21196700  *  122.4671130  *  179.1614570  *     7     6     1
    12       O          1.31344200  *  120.8106630  *   -0.2561980  *     9     2     1
    13       H          1.10231700  *  119.3834980  *  179.9607100  *     1     2     3
    14       H          1.10327800  *  121.4918750  * -179.9595080  *     3     2     1
    15       H          1.10359900  *  119.7391990  *  179.9236460  *     4     3     2
    16       H          1.10248600  *  117.7050000  *  179.8336180  *     5     4     3
    17       H          0.97085900  *  107.4864910  *  175.8499900  *     8     7     6
 


          CARTESIAN COORDINATES 

    NO.       ATOM           X           Y           Z

     1         C          0.0000      0.0000      0.0000
     2         C          1.3493      0.0000      0.0000
     3         C          1.9721      1.1939      0.0000
     4         C          1.2691      2.3365      0.0030
     5         C         -0.0720      2.3113      0.0076
     6         C         -0.7234      1.1341      0.0058
     7         C         -2.0865      1.0667      0.0133
     8         O         -2.7682     -0.1068      0.0105
     9         N          1.9912     -1.0818      0.0014
    10         O          3.3019     -1.1514      0.0037
    11         O         -2.7867      2.0557      0.0338
    12         O          1.3643     -2.2360      0.0080
    13         H         -0.5409     -0.9605     -0.0007
    14         H          3.0728      1.2698     -0.0007
    15         H          1.7984      3.3049      0.0042
    16         H         -0.6028      3.2776      0.0128
    17         H         -3.7129      0.1045      0.0842

 General Reference for PM7:
 "Optimization of Parameters for Semiempirical Methods VI: More Modifications to the 
 NDDO Approximations and Re-optimization of Parameters", J. J. P. Stewart, J. Mol. Mod., 1:32, 19 (2013)
 http://www.springerlink.com/openurl.asp?genre=article&id=doi:10.1007/s00894-012-1667-x

           Empirical Formula: C7 H5 N O4  =    17 atoms



      MOLECULAR POINT GROUP   :   Cs  


      RHF CALCULATION, NO. OF DOUBLY OCCUPIED LEVELS = 31


          Geometry optimization using EF

          DIAGONAL MATRIX USED AS START HESSIAN

 CYCLE:     1 TIME:   0.031 TIME LEFT:  2.00D  GRAD.:   625.507 HEAT: -7.627594
 CYCLE:     2 TIME:   0.047 TIME LEFT:  2.00D  GRAD.:   617.248 HEAT: -14.94028
 CYCLE:     3 TIME:   0.016 TIME LEFT:  2.00D  GRAD.:   269.567 HEAT: -52.66444
 CYCLE:     4 TIME:   0.016 TIME LEFT:  2.00D  GRAD.:   613.232 HEAT: -59.17846
 CYCLE:     5 TIME:   0.016 TIME LEFT:  2.00D  GRAD.:   307.797 HEAT: -63.56809
 CYCLE:     6 TIME:   0.016 TIME LEFT:  2.00D  GRAD.:   108.418 HEAT: -66.59014
 CYCLE:     7 TIME:   0.016 TIME LEFT:  2.00D  GRAD.:    47.301 HEAT: -68.15911
 CYCLE:     8 TIME:   0.031 TIME LEFT:  2.00D  GRAD.:    36.850 HEAT: -68.57581
 CYCLE:     9 TIME:   0.016 TIME LEFT:  2.00D  GRAD.:    13.527 HEAT: -68.87339
 CYCLE:    10 TIME:   0.031 TIME LEFT:  2.00D  GRAD.:    11.765 HEAT: -68.98773
 CYCLE:    11 TIME:   0.016 TIME LEFT:  2.00D  GRAD.:    12.663 HEAT: -69.09661
 CYCLE:    12 TIME:   0.016 TIME LEFT:  2.00D  GRAD.:     3.695 HEAT: -69.16771
 CYCLE:    13 TIME:   0.000 TIME LEFT:  2.00D  GRAD.:     1.474 HEAT: -69.17214
 CYCLE:    14 TIME:   0.016 TIME LEFT:  2.00D  GRAD.:     1.538 HEAT: -69.17494
 CYCLE:    15 TIME:   0.016 TIME LEFT:  2.00D  GRAD.:     1.202 HEAT: -69.17838
 CYCLE:    16 TIME:   0.016 TIME LEFT:  2.00D  GRAD.:     0.800 HEAT: -69.17973

     GRADIENT =  0.80032 IS LESS THAN CUTOFF =  1.00000



 -------------------------------------------------------------------------------

 3-nitrobenzoic acid2.mop



     GEOMETRY OPTIMISED USING EIGENVECTOR FOLLOWING (EF).     
     SCF FIELD WAS ACHIEVED                                   


                              PM7 CALCULATION
                                                       MOPAC2016 (Version: 19.179W)
                                                       Fri Jul 26 15:01:07 2019
                                                       No. of days remaining = 337




          FINAL HEAT OF FORMATION =        -69.17973 KCAL/MOL =    -289.44798 KJ/MOL


          TOTAL ENERGY            =      -2291.88642 EV
          ELECTRONIC ENERGY       =     -10566.81919 EV  POINT GROUP:     Cs  
          CORE-CORE REPULSION     =       8274.93277 EV
          COSMO AREA              =        178.47 SQUARE ANGSTROMS
          COSMO VOLUME            =        175.11 CUBIC ANGSTROMS

          GRADIENT NORM           =          0.80032 = 0.19411 PER ATOM
          IONIZATION POTENTIAL    =         11.128847 EV
          HOMO LUMO ENERGIES (EV) =        -11.129 -1.708
          NO. OF FILLED LEVELS    =         31
          MOLECULAR WEIGHT        =        167.1208

          MOLECULAR DIMENSIONS (Angstroms)

            Atom       Atom       Distance
            H    17    O    10     7.13888
            H    15    O    12     5.64560
            O    11    O     8     0.02306


          SCF CALCULATIONS        =         20
 
          WALL-CLOCK TIME         =          0.344 SECONDS
          COMPUTATION TIME        =          0.608 SECONDS




  ATOM    CHEMICAL      BOND LENGTH      BOND ANGLE     TWIST ANGLE 
 NUMBER    SYMBOL       (ANGSTROMS)      (DEGREES)       (DEGREES) 
   (I)                     NA:I           NB:NA:I       NC:NB:NA:I       NA    NB    NC 
     1       C          0.00000000       0.0000000       0.0000000        0     0     0
     2       C          1.39673521  *    0.0000000       0.0000000        1     0     0
     3       C          1.39938961  *  121.4803054  *    0.0000000        2     1     0
     4       C          1.39188373  *  119.2282788  *    0.0531077  *     3     2     1
     5       C          1.39376241  *  120.1072006  *    0.0161559  *     4     3     2
     6       C          1.39409581  *  118.4253796  *   -0.1033458  *     1     2     3
     7       C          1.47258010  *  121.3105949  * -179.9020779  *     6     1     2
     8       O          1.35701855  *  111.4787327  *   -0.4998045  *     7     6     1
     9       N          1.45602819  *  119.3443195  *  179.8982651  *     2     1     6
    10       O          1.22031228  *  117.9747085  *  179.9211603  *     9     2     1
    11       O          1.20422077  *  127.5861472  *  179.4174833  *     7     6     1
    12       O          1.21910070  *  118.1071092  *   -0.1012811  *     9     2     1
    13       H          1.10072291  *  120.6817207  *  179.9272158  *     1     2     3
    14       H          1.09656864  *  120.1822385  * -179.9460812  *     3     2     1
    15       H          1.09075782  *  119.9127332  *  179.9973769  *     4     3     2
    16       H          1.09621346  *  120.3243825  *  179.9578088  *     5     4     3
    17       H          0.99144453  *  113.3845320  *  179.3460590  *     8     7     6

                             CARTESIAN COORDINATES

   1    C        0.000000000     0.000000000     0.000000000
   2    C        1.396735205     0.000000000     0.000000000
   3    C        2.127504090     1.193427053     0.000000000
   4    C        1.446522930     2.407347849     0.001125884
   5    C        0.052902540     2.427191340     0.002577104
   6    C       -0.663608858     1.226018566     0.002211402
   7    C       -2.134320672     1.300138096     0.004495297
   8    O       -2.694146080     0.064029303    -0.006902644
   9    N        2.110271820    -1.269205884    -0.000035684
  10    O        3.330234578    -1.240038506    -0.001517825
  11    O       -2.819862731     2.290109088     0.016207679
  12    O        1.454379576    -2.296828565     0.001836273
  13    H       -0.561664304    -0.946637567    -0.001202538
  14    H        3.223790969     1.168586040    -0.000892039
  15    H        2.004969878     3.344305489     0.001181246
  16    H       -0.487040889     3.381205248     0.004163648
  17    H       -3.685379975     0.080850495     0.004701760


           Empirical Formula: C7 H5 N O4  =    17 atoms



      MOLECULAR POINT GROUP   :   Cs  


                  EIGENVALUES  
 -37.47837 -32.25673 -31.76383 -30.89409 -30.47539 -28.06018 -27.54069 -25.05809
 -23.86009 -22.06965 -20.86644 -19.20844 -18.36598 -17.65359 -17.54139 -17.44743
 -16.70924 -16.19412 -16.16717 -15.72614 -14.37221 -14.36011 -13.66426 -13.41905
 -12.59995 -11.71962 -11.54031 -11.49628 -11.32383 -11.19789 -11.12885  -1.70767
  -1.30992   0.01529   0.44603   0.66144   1.43094   1.49923   2.50537   3.05556
   3.19327   3.60859   3.66366   3.72963   4.05200   4.21978   4.32342   4.74816
   4.86435   4.97493   5.06480   5.07838   5.15974


              NET ATOMIC CHARGES AND DIPOLE CONTRIBUTIONS

  ATOM NO.   TYPE          CHARGE      No. of ELECS.   s-Pop       p-Pop       
    1          C          -0.008729        4.0087     1.09887     2.90986
    2          C          -0.114766        4.1148     1.07646     3.03831
    3          C          -0.038740        4.0387     1.09747     2.94127
    4          C          -0.195122        4.1951     1.08216     3.11296
    5          C          -0.027513        4.0275     1.09893     2.92859
    6          C          -0.166977        4.1670     1.06492     3.10205
    7          C           0.639419        3.3606     1.10198     2.25860
    8          O          -0.548462        6.5485     1.83879     4.70968
    9          N           0.624487        4.3755     1.44988     2.92563
   10          O          -0.397792        6.3978     1.94175     4.45604
   11          O          -0.490261        6.4903     1.87820     4.61206
   12          O          -0.385848        6.3858     1.94160     4.44425
   13          H           0.208154        0.7918     0.79185
   14          H           0.187157        0.8128     0.81284
   15          H           0.171938        0.8281     0.82806
   16          H           0.179876        0.8201     0.82012
   17          H           0.363179        0.6368     0.63682
 DIPOLE           X         Y         Z       TOTAL
 POINT-CHG.    -0.400     3.397     0.001     3.420
 HYBRID        -0.382    -0.413     0.002     0.563
 SUM           -0.782     2.983     0.003     3.084


          ATOMIC ORBITAL ELECTRON POPULATIONS

     Atom    s        px        py        pz   
    1  C   1.09887   0.98142   1.06672   0.86172
    2  C   1.07646   0.97805   0.90914   1.15111
    3  C   1.09747   1.09429   0.96209   0.88488
    4  C   1.08216   1.01036   1.06345   1.03916
    5  C   1.09893   1.00221   1.05608   0.87030
    6  C   1.06492   0.98217   1.00022   1.11966
    7  C   1.10198   0.85087   0.73903   0.66870
    8  O   1.83879   1.40197   1.44234   1.86537
    9  N   1.44988   0.98185   0.99975   0.94402
   10  O   1.94175   0.98315   1.92309   1.54980
   11  O   1.87820   1.66553   1.44346   1.50307
   12  O   1.94160   1.63585   1.26634   1.54206
   13  H   0.79185
   14  H   0.81284
   15  H   0.82806
   16  H   0.82012
   17  H   0.63682

 **********************
 *                    *
 * JOB ENDED NORMALLY *
 *                    *
 **********************



 TOTAL JOB TIME:             0.34 SECONDS

 == MOPAC DONE ==
