 *******************************************************************************
 ** Site#: 32691        For non-commercial use only    Version 19.179W 32BITS **
 *******************************************************************************
 ** Cite this program as: MOPAC2016, Version: 19.179W, James J. P. Stewart,   **
 ** Stewart Computational Chemistry, web: HTTP://OpenMOPAC.net. Days left: 338**
 *******************************************************************************
 **                                                                           **
 **                                MOPAC2016                                  **
 **                                                                           **
 *******************************************************************************

                              PM7 CALCULATION RESULTS

 *******************************************************************************
 *  CALCULATION DONE:                                Thu Jul 25 10:23:46 2019  *
 *  T=         - A TIME OF 172800.0 SECONDS REQUESTED
 *  DUMP=N     - RESTART FILE WRITTEN EVERY  7200.000 SECONDS
 *******************************************************************************

 3-nitrobenzaldehyde-2.mop

  ATOM    CHEMICAL      BOND LENGTH      BOND ANGLE     TWIST ANGLE 
 NUMBER    SYMBOL       (ANGSTROMS)      (DEGREES)       (DEGREES) 
   (I)                     NA:I           NB:NA:I       NC:NB:NA:I       NA    NB    NC 
     1       C          0.00000000       0.0000000       0.0000000        0     0     0
     2       C          1.34619500  *    0.0000000       0.0000000        1     0     0
     3       C          1.34424100  *  119.1123360  *    0.0000000        2     1     0
     4       C          1.34099800  *  119.6953910  *   -0.0001100  *     3     2     1
     5       C          1.34178200  *  120.4328770  *   -0.0001360  *     4     3     2
     6       C          1.34798200  *  122.1509300  *    0.0002980  *     1     2     3
     7       C          1.35974800  *  119.7423290  * -179.9996660  *     2     1     6
     8       O          1.21072800  *  126.6168750  *  179.9996640  *     7     2     1
     9       N          1.25757000  *  120.7871270  *  179.9997180  *     6     1     2
    10       O          1.31416800  *  123.1471100  *    0.0001540  *     9     6     1
    11       O          1.31138400  *  122.7597710  * -179.9996640  *     9     6     1
    12       H          1.10351600  *  118.4767620  * -179.9999090  *     1     2     3
    13       H          1.10256900  *  121.9769240  *  179.9998820  *     3     2     1
    14       H          1.10350100  *  119.7220570  *  179.9999740  *     4     3     2
    15       H          1.10333300  *  117.3502990  * -179.9998270  *     5     4     3
    16       H          1.11643200  *  115.3819050  *   -0.0002400  *     7     2     1
 


          CARTESIAN COORDINATES 

    NO.       ATOM           X           Y           Z

     1         C          0.0000      0.0000      0.0000
     2         C          1.3462      0.0000      0.0000
     3         C          2.0002      1.1744      0.0000
     4         C          1.3057      2.3216     -0.0000
     5         C         -0.0360      2.3038     -0.0000
     6         C         -0.7173      1.1413     -0.0000
     7         C          2.0208     -1.1806     -0.0000
     8         O          3.2228     -1.3255     -0.0000
     9         N         -1.9745      1.1113     -0.0000
    10         O         -2.6667     -0.0058     -0.0000
    11         O         -2.7102      2.1969     -0.0000
    12         H         -0.5262     -0.9700      0.0000
    13         H          3.1014      1.2295      0.0000
    14         H          1.8421      3.2859     -0.0000
    15         H         -0.5558      3.2770     -0.0000
    16         H          1.3824     -2.0965      0.0000

 General Reference for PM7:
 "Optimization of Parameters for Semiempirical Methods VI: More Modifications to the 
 NDDO Approximations and Re-optimization of Parameters", J. J. P. Stewart, J. Mol. Mod., 1:32, 19 (2013)
 http://www.springerlink.com/openurl.asp?genre=article&id=doi:10.1007/s00894-012-1667-x

           Empirical Formula: C7 H5 N O3  =    16 atoms



      MOLECULAR POINT GROUP   :   Cs  


      RHF CALCULATION, NO. OF DOUBLY OCCUPIED LEVELS = 28


          Geometry optimization using EF

          DIAGONAL MATRIX USED AS START HESSIAN

 CYCLE:     1 TIME:   0.031 TIME LEFT:  2.00D  GRAD.:   687.168 HEAT:  50.07374
 CYCLE:     2 TIME:   0.078 TIME LEFT:  2.00D  GRAD.:   599.097 HEAT:  44.15688
 CYCLE:     3 TIME:   0.000 TIME LEFT:  2.00D  GRAD.:   323.344 HEAT:  6.505776
 CYCLE:     4 TIME:   0.031 TIME LEFT:  2.00D  GRAD.:   709.837 HEAT:  2.802236
 CYCLE:     5 TIME:   0.000 TIME LEFT:  2.00D  GRAD.:   165.768 HEAT: -7.478071
 CYCLE:     6 TIME:   0.016 TIME LEFT:  2.00D  GRAD.:   108.239 HEAT: -8.068803
 CYCLE:     7 TIME:   0.016 TIME LEFT:  2.00D  GRAD.:    48.549 HEAT: -9.205040
 CYCLE:     8 TIME:   0.000 TIME LEFT:  2.00D  GRAD.:    42.865 HEAT: -9.494695
 CYCLE:     9 TIME:   0.016 TIME LEFT:  2.00D  GRAD.:     6.475 HEAT: -9.815518
 CYCLE:    10 TIME:   0.000 TIME LEFT:  2.00D  GRAD.:     8.234 HEAT: -9.843404
 CYCLE:    11 TIME:   0.016 TIME LEFT:  2.00D  GRAD.:    11.709 HEAT: -9.875837
 CYCLE:    12 TIME:   0.016 TIME LEFT:  2.00D  GRAD.:     1.973 HEAT: -9.910467
 CYCLE:    13 TIME:   0.016 TIME LEFT:  2.00D  GRAD.:     0.842 HEAT: -9.913067

     GRADIENT =  0.84165 IS LESS THAN CUTOFF =  1.00000



 -------------------------------------------------------------------------------

 3-nitrobenzaldehyde-2.mop



     GEOMETRY OPTIMISED USING EIGENVECTOR FOLLOWING (EF).     
     SCF FIELD WAS ACHIEVED                                   


                              PM7 CALCULATION
                                                       MOPAC2016 (Version: 19.179W)
                                                       Thu Jul 25 10:23:46 2019
                                                       No. of days remaining = 338




          FINAL HEAT OF FORMATION =         -9.91307 KCAL/MOL =     -41.47628 KJ/MOL


          TOTAL ENERGY            =      -1995.81628 EV
          ELECTRONIC ENERGY       =      -8913.76303 EV  POINT GROUP:     Cs  
          CORE-CORE REPULSION     =       6917.94675 EV
          COSMO AREA              =        169.54 SQUARE ANGSTROMS
          COSMO VOLUME            =        165.09 CUBIC ANGSTROMS

          GRADIENT NORM           =          0.84165 = 0.21041 PER ATOM
          IONIZATION POTENTIAL    =         10.840579 EV
          HOMO LUMO ENERGIES (EV) =        -10.841 -1.640
          NO. OF FILLED LEVELS    =         28
          MOLECULAR WEIGHT        =        151.1214

          MOLECULAR DIMENSIONS (Angstroms)

            Atom       Atom       Distance
            O    11    O     8     7.04349
            H    14    O    10     5.14835
            O    11    H    15     0.00089


          SCF CALCULATIONS        =         16
 
          WALL-CLOCK TIME         =          0.484 SECONDS
          COMPUTATION TIME        =          0.406 SECONDS




  ATOM    CHEMICAL      BOND LENGTH      BOND ANGLE     TWIST ANGLE 
 NUMBER    SYMBOL       (ANGSTROMS)      (DEGREES)       (DEGREES) 
   (I)                     NA:I           NB:NA:I       NC:NB:NA:I       NA    NB    NC 
     1       C          0.00000000       0.0000000       0.0000000        0     0     0
     2       C          1.39303245  *    0.0000000       0.0000000        1     0     0
     3       C          1.39785745  *  120.3544571  *    0.0000000        2     1     0
     4       C          1.39451148  *  120.2673546  *   -0.0037806  *     3     2     1
     5       C          1.39143378  *  120.1150580  *   -0.0055716  *     4     3     2
     6       C          1.39661701  *  118.7200115  *   -0.0095609  *     1     2     3
     7       C          1.48410832  *  120.2155953  *  179.9968214  *     2     1     6
     8       O          1.20645277  *  121.3738774  * -179.9992970  *     7     2     1
     9       N          1.45570284  *  119.1315060  *  179.9918797  *     6     1     2
    10       O          1.22038126  *  117.9944769  *   -0.0105077  *     9     6     1
    11       O          1.21964398  *  118.1901364  *  179.9912545  *     9     6     1
    12       H          1.09614239  *  121.1013439  *  179.9911582  *     1     2     3
    13       H          1.09625198  *  119.2621773  * -179.9957829  *     3     2     1
    14       H          1.09071157  *  119.9139300  *  179.9994822  *     4     3     2
    15       H          1.09596653  *  120.8560397  * -179.9979494  *     5     4     3
    16       H          1.09794188  *  117.4745151  *    0.0034948  *     7     2     1

                             CARTESIAN COORDINATES

   1    C        0.000000000     0.000000000     0.000000000
   2    C        1.393032452     0.000000000     0.000000000
   3    C        2.099436940     1.206233044     0.000000000
   4    C        1.415328574     2.421411223    -0.000079471
   5    C        0.024009876     2.439305683    -0.000276331
   6    C       -0.671116128     1.224802908     0.000204382
   7    C        2.139917643    -1.282474171    -0.000142858
   8    O        3.346123900    -1.306861964    -0.000132935
   9    N       -2.126781416     1.235257614     0.000025912
  10    O       -2.707336130     0.161811587    -0.000496100
  11    O       -2.695204886     2.314343376     0.000372901
  12    H       -0.566216093    -0.938577358    -0.000144840
  13    H        3.195489722     1.185335496    -0.000070390
  14    H        1.972312647     3.359185434    -0.000070484
  15    H       -0.525946308     3.387298728    -0.000374305
  16    H        1.553069646    -2.210421240    -0.000305641


           Empirical Formula: C7 H5 N O3  =    16 atoms



      MOLECULAR POINT GROUP   :   Cs  


                  EIGENVALUES  
 -37.47382 -32.04476 -31.44768 -30.88074 -27.90460 -27.55898 -24.98651 -23.75866
 -22.08570 -20.82710 -19.07638 -18.22216 -17.53313 -17.38064 -16.88629 -16.18263
 -15.62650 -15.25777 -15.01741 -14.00447 -13.64304 -13.40346 -11.55020 -11.50530
 -11.35436 -11.08603 -11.04642 -10.84058  -1.63955  -1.32682   0.00716   0.45813
   0.52773   1.53056   2.51468   3.01919   3.32339   3.59952   3.73780   3.82500
   4.09081   4.29853   4.45952   4.69773   4.73217   4.86618   5.06910   5.13423
   5.22331


              NET ATOMIC CHARGES AND DIPOLE CONTRIBUTIONS

  ATOM NO.   TYPE          CHARGE      No. of ELECS.   s-Pop       p-Pop       
    1          C          -0.048558        4.0486     1.09481     2.95374
    2          C          -0.191476        4.1915     1.07958     3.11189
    3          C          -0.025271        4.0253     1.09951     2.92576
    4          C          -0.191747        4.1917     1.08351     3.10823
    5          C          -0.048497        4.0485     1.09644     2.95205
    6          C          -0.103529        4.1035     1.07596     3.02757
    7          C           0.338448        3.6616     1.13645     2.52510
    8          O          -0.411627        6.4116     1.87927     4.53235
    9          N           0.623283        4.3767     1.45059     2.92612
   10          O          -0.396512        6.3965     1.94172     4.45480
   11          O          -0.391974        6.3920     1.94157     4.45041
   12          H           0.186978        0.8130     0.81302
   13          H           0.178877        0.8211     0.82112
   14          H           0.170902        0.8291     0.82910
   15          H           0.187175        0.8128     0.81283
   16          H           0.123527        0.8765     0.87647
 DIPOLE           X         Y         Z       TOTAL
 POINT-CHG.     2.520     0.645    -0.000     2.601
 HYBRID        -0.302     0.120    -0.000     0.325
 SUM            2.218     0.765    -0.000     2.346


          ATOMIC ORBITAL ELECTRON POPULATIONS

     Atom    s        px        py        pz   
    1  C   1.09481   1.00160   1.05191   0.90024
    2  C   1.07958   0.99326   1.03336   1.08528
    3  C   1.09951   1.09399   0.96647   0.86530
    4  C   1.08351   1.00684   1.06896   1.03243
    5  C   1.09644   1.00657   1.04984   0.89564
    6  C   1.07596   0.87221   1.00963   1.14573
    7  C   1.13645   0.87078   0.96791   0.68641
    8  O   1.87927   1.26180   1.91823   1.35232
    9  N   1.45059   1.00903   0.97368   0.94341
   10  O   1.94172   1.72448   1.18218   1.54813
   11  O   1.94157   1.73204   1.17327   1.54510
   12  H   0.81302
   13  H   0.82112
   14  H   0.82910
   15  H   0.81283
   16  H   0.87647

 **********************
 *                    *
 * JOB ENDED NORMALLY *
 *                    *
 **********************



 TOTAL JOB TIME:             0.50 SECONDS

 == MOPAC DONE ==
