 *******************************************************************************
 ** Site#: 32691        For non-commercial use only    Version 19.179W 32BITS **
 *******************************************************************************
 ** Cite this program as: MOPAC2016, Version: 19.179W, James J. P. Stewart,   **
 ** Stewart Computational Chemistry, web: HTTP://OpenMOPAC.net. Days left: 339**
 *******************************************************************************
 **                                                                           **
 **                                MOPAC2016                                  **
 **                                                                           **
 *******************************************************************************

                              PM7 CALCULATION RESULTS

 *******************************************************************************
 *  CALCULATION DONE:                                Wed Jul 24 15:55:26 2019  *
 *  T=         - A TIME OF 172800.0 SECONDS REQUESTED
 *  DUMP=N     - RESTART FILE WRITTEN EVERY  7200.000 SECONDS
 *******************************************************************************

 3-nitrobenzaldehyde.mop

  ATOM    CHEMICAL      BOND LENGTH      BOND ANGLE     TWIST ANGLE 
 NUMBER    SYMBOL       (ANGSTROMS)      (DEGREES)       (DEGREES) 
   (I)                     NA:I           NB:NA:I       NC:NB:NA:I       NA    NB    NC 
     1       C          0.00000000       0.0000000       0.0000000        0     0     0
     2       C          1.34592600  *    0.0000000       0.0000000        1     0     0
     3       C          1.33944700  *  120.2299180  *    0.0000000        2     1     0
     4       C          1.34017800  *  119.9623890  *   -0.0000350  *     3     2     1
     5       C          1.34817400  *  121.2975500  *   -0.0000360  *     4     3     2
     6       C          1.34647000  *  119.0454320  *    0.0000670  *     1     2     3
     7       N          1.25803800  *  120.2832240  * -179.9999400  *     5     4     3
     8       O          1.31342600  *  123.4010750  *  179.9999680  *     7     5     4
     9       O          1.31386000  *  122.4160760  *    0.0000200  *     7     5     4
    10       C          1.36016300  *  119.0405940  * -179.9999370  *     1     2     3
    11       O          1.21126800  *  129.7072460  *  179.9999470  *    10     1     2
    12       H          1.10352300  *  121.9823040  * -179.9999610  *     2     1     6
    13       H          1.10342300  *  119.9513450  *  179.9999600  *     3     2     1
    14       H          1.10341700  *  116.7809360  *  179.9999830  *     4     3     2
    15       H          1.10287800  *  118.5698370  *  179.9999600  *     6     1     2
    16       H          1.11774900  *  113.9744540  *   -0.0000360  *    10     1     2
 


          CARTESIAN COORDINATES 

    NO.       ATOM           X           Y           Z

     1         C          0.0000      0.0000      0.0000
     2         C          1.3459      0.0000      0.0000
     3         C          2.0203      1.1573      0.0000
     4         C          1.3541      2.3202     -0.0000
     5         C          0.0064      2.3552     -0.0000
     6         C         -0.6537      1.1771     -0.0000
     7         N         -0.5995      3.4577     -0.0000
     8         O         -1.9087      3.5632     -0.0000
     9         O          0.0332      4.6092     -0.0000
    10         C         -0.6603     -1.1892      0.0000
    11         O         -1.8506     -1.4134      0.0000
    12         H          1.9304     -0.9360      0.0000
    13         H          3.1237      1.1519      0.0000
    14         H          1.9617      3.2412     -0.0000
    15         H         -1.7566      1.1680     -0.0000
    16         H          0.0122     -2.0820      0.0000

 General Reference for PM7:
 "Optimization of Parameters for Semiempirical Methods VI: More Modifications to the 
 NDDO Approximations and Re-optimization of Parameters", J. J. P. Stewart, J. Mol. Mod., 1:32, 19 (2013)
 http://www.springerlink.com/openurl.asp?genre=article&id=doi:10.1007/s00894-012-1667-x

           Empirical Formula: C7 H5 N O3  =    16 atoms



      MOLECULAR POINT GROUP   :   Cs  


      RHF CALCULATION, NO. OF DOUBLY OCCUPIED LEVELS = 28


          Geometry optimization using EF

          DIAGONAL MATRIX USED AS START HESSIAN

 CYCLE:     1 TIME:   0.016 TIME LEFT:  2.00D  GRAD.:   663.942 HEAT:  51.41424
 CYCLE:     2 TIME:   0.047 TIME LEFT:  2.00D  GRAD.:   596.610 HEAT:  45.08154
 CYCLE:     3 TIME:   0.016 TIME LEFT:  2.00D  GRAD.:   309.951 HEAT:  7.579916
 CYCLE:     4 TIME:   0.031 TIME LEFT:  2.00D  GRAD.:   658.412 HEAT:  2.942920
 CYCLE:     5 TIME:   0.062 TIME LEFT:  2.00D  GRAD.:   170.501 HEAT: -6.280269
 CYCLE:     6 TIME:   0.016 TIME LEFT:  2.00D  GRAD.:   100.716 HEAT: -7.338871
 CYCLE:     7 TIME:   0.016 TIME LEFT:  2.00D  GRAD.:    53.599 HEAT: -8.164553
 CYCLE:     8 TIME:   0.016 TIME LEFT:  2.00D  GRAD.:    51.379 HEAT: -8.539356
 CYCLE:     9 TIME:   0.016 TIME LEFT:  2.00D  GRAD.:     8.514 HEAT: -8.879772
 CYCLE:    10 TIME:   0.031 TIME LEFT:  2.00D  GRAD.:     6.261 HEAT: -8.925625
 CYCLE:    11 TIME:   0.000 TIME LEFT:  2.00D  GRAD.:     7.249 HEAT: -8.977270
 CYCLE:    12 TIME:   0.016 TIME LEFT:  2.00D  GRAD.:     3.391 HEAT: -9.016848
 CYCLE:    13 TIME:   0.016 TIME LEFT:  2.00D  GRAD.:     1.337 HEAT: -9.021219
 CYCLE:    14 TIME:   0.016 TIME LEFT:  2.00D  GRAD.:     0.750 HEAT: -9.022443

     GRADIENT =  0.75023 IS LESS THAN CUTOFF =  1.00000



 -------------------------------------------------------------------------------

 3-nitrobenzaldehyde.mop



     GEOMETRY OPTIMISED USING EIGENVECTOR FOLLOWING (EF).     
     SCF FIELD WAS ACHIEVED                                   


                              PM7 CALCULATION
                                                       MOPAC2016 (Version: 19.179W)
                                                       Wed Jul 24 15:55:26 2019
                                                       No. of days remaining = 339




          FINAL HEAT OF FORMATION =         -9.02244 KCAL/MOL =     -37.74990 KJ/MOL


          TOTAL ENERGY            =      -1995.77697 EV
          ELECTRONIC ENERGY       =      -8945.48851 EV  POINT GROUP:     Cs  
          CORE-CORE REPULSION     =       6949.71154 EV
          COSMO AREA              =        169.64 SQUARE ANGSTROMS
          COSMO VOLUME            =        165.53 CUBIC ANGSTROMS

          GRADIENT NORM           =          0.75023 = 0.18756 PER ATOM
          IONIZATION POTENTIAL    =         10.800643 EV
          HOMO LUMO ENERGIES (EV) =        -10.801 -1.668
          NO. OF FILLED LEVELS    =         28
          MOLECULAR WEIGHT        =        151.1214

          MOLECULAR DIMENSIONS (Angstroms)

            Atom       Atom       Distance
            H    16    O     9     6.90714
            H    13    O     8     5.15416
            H    15    H    14     0.00046


          SCF CALCULATIONS        =         18
 
          WALL-CLOCK TIME         =          0.328 SECONDS
          COMPUTATION TIME        =          0.515 SECONDS




  ATOM    CHEMICAL      BOND LENGTH      BOND ANGLE     TWIST ANGLE 
 NUMBER    SYMBOL       (ANGSTROMS)      (DEGREES)       (DEGREES) 
   (I)                     NA:I           NB:NA:I       NC:NB:NA:I       NA    NB    NC 
     1       C          0.00000000       0.0000000       0.0000000        0     0     0
     2       C          1.39628766  *    0.0000000       0.0000000        1     0     0
     3       C          1.39421424  *  120.1991496  *    0.0000000        2     1     0
     4       C          1.39212969  *  120.1281797  *   -0.0008402  *     3     2     1
     5       C          1.39880985  *  119.1161416  *   -0.0006420  *     4     3     2
     6       C          1.39447893  *  120.4423682  *    0.0060283  *     1     2     3
     7       N          1.45666514  *  119.1470194  *  179.9987612  *     5     4     3
     8       O          1.21888222  *  118.1509670  * -179.9982520  *     7     5     4
     9       O          1.22058140  *  117.9277449  *    0.0063454  *     7     5     4
    10       C          1.48384136  *  120.2783040  * -179.9979321  *     1     2     3
    11       O          1.20618112  *  121.4949531  * -179.9939872  *    10     1     2
    12       H          1.09185120  *  120.1598173  * -179.9992006  *     2     1     6
    13       H          1.09009797  *  120.0694771  * -179.9938723  *     3     2     1
    14       H          1.09619254  *  120.7420517  *  179.9980112  *     4     3     2
    15       H          1.10098663  *  120.2951631  *  179.9927665  *     6     1     2
    16       H          1.09720470  *  117.4545912  *    0.0039152  *    10     1     2

                             CARTESIAN COORDINATES

   1    C        0.000000000     0.000000000     0.000000000
   2    C        1.396287663     0.000000000     0.000000000
   3    C        2.097587353     1.204994648     0.000000000
   4    C        1.408421506     2.414571227    -0.000017657
   5    C        0.009677643     2.400984429    -0.000048978
   6    C       -0.706542628     1.202235001    -0.000126492
   7    N       -0.712118092     3.666244973    -0.000039962
   8    O       -1.930552839     3.633220158    -0.000034877
   9    O       -0.058660844     4.697172989    -0.000124486
  10    C       -0.748153774    -1.281425417     0.000046248
  11    O       -1.954062967    -1.307036192    -0.000060761
  12    H        1.944848654    -0.944044428     0.000086155
  13    H        3.187682525     1.202527529    -0.000100894
  14    H        1.949631963     3.367844177     0.000014873
  15    H       -1.807525620     1.199406325    -0.000246211
  16    H       -0.162392423    -2.209187129     0.000146264


           Empirical Formula: C7 H5 N O3  =    16 atoms



      MOLECULAR POINT GROUP   :   Cs  


                  EIGENVALUES  
 -37.39273 -32.03382 -31.44262 -30.79730 -28.03677 -27.27388 -25.13907 -23.73191
 -21.80226 -20.89497 -19.23119 -18.02509 -17.45940 -17.44644 -16.82005 -16.02391
 -15.60475 -15.23488 -15.01639 -13.97806 -13.83205 -13.25929 -11.44923 -11.40659
 -11.26364 -11.10606 -10.98706 -10.80064  -1.66792  -1.20758   0.01388   0.53313
   0.57494   1.55195   2.55178   3.02447   3.41681   3.57976   3.71159   3.87879
   4.13915   4.27874   4.49056   4.70116   4.83416   4.87286   5.01554   5.13750
   5.27163


              NET ATOMIC CHARGES AND DIPOLE CONTRIBUTIONS

  ATOM NO.   TYPE          CHARGE      No. of ELECS.   s-Pop       p-Pop       
    1          C          -0.189889        4.1899     1.07928     3.11061
    2          C          -0.059539        4.0595     1.09373     2.96581
    3          C          -0.187512        4.1875     1.08207     3.10544
    4          C          -0.049483        4.0495     1.09646     2.95303
    5          C          -0.107932        4.1079     1.07793     3.03000
    6          C          -0.016636        4.0166     1.09998     2.91666
    7          N           0.621821        4.3782     1.45058     2.92760
    8          O          -0.381937        6.3819     1.94158     4.44036
    9          O          -0.397501        6.3975     1.94181     4.45569
   10          C           0.332213        3.6678     1.13524     2.53255
   11          O          -0.398975        6.3990     1.87968     4.51930
   12          H           0.156783        0.8432     0.84322
   13          H           0.167543        0.8325     0.83246
   14          H           0.187458        0.8125     0.81254
   15          H           0.207139        0.7929     0.79286
   16          H           0.116446        0.8836     0.88355
 DIPOLE           X         Y         Z       TOTAL
 POINT-CHG.     5.402    -3.976     0.000     6.708
 HYBRID        -0.325     0.474    -0.000     0.575
 SUM            5.077    -3.502     0.000     6.168


          ATOMIC ORBITAL ELECTRON POPULATIONS

     Atom    s        px        py        pz   
    1  C   1.07928   0.99718   1.02828   1.08515
    2  C   1.09373   0.99973   1.06049   0.90559
    3  C   1.08207   1.09298   0.97917   1.03330
    4  C   1.09646   0.98579   1.07131   0.89593
    5  C   1.07793   0.97715   0.91049   1.14236
    6  C   1.09998   1.10228   0.94999   0.86438
    7  N   1.45058   0.98332   0.99921   0.94507
    8  O   1.94158   0.97883   1.92154   1.53999
    9  O   1.94181   1.64104   1.26476   1.54989
   10  C   1.13524   0.87258   0.96738   0.69259
   11  O   1.87968   1.25619   1.91735   1.34576
   12  H   0.84322
   13  H   0.83246
   14  H   0.81254
   15  H   0.79286
   16  H   0.88355

 **********************
 *                    *
 * JOB ENDED NORMALLY *
 *                    *
 **********************



 TOTAL JOB TIME:             0.34 SECONDS

 == MOPAC DONE ==
