 *******************************************************************************
 ** Site#: 32691        For non-commercial use only    Version 19.179W 32BITS **
 *******************************************************************************
 ** Cite this program as: MOPAC2016, Version: 19.179W, James J. P. Stewart,   **
 ** Stewart Computational Chemistry, web: HTTP://OpenMOPAC.net. Days left: 337**
 *******************************************************************************
 **                                                                           **
 **                                MOPAC2016                                  **
 **                                                                           **
 *******************************************************************************

                              PM7 CALCULATION RESULTS

 *******************************************************************************
 *  CALCULATION DONE:                                Fri Jul 26 15:01:03 2019  *
 *  T=         - A TIME OF 172800.0 SECONDS REQUESTED
 *  DUMP=N     - RESTART FILE WRITTEN EVERY  7200.000 SECONDS
 *******************************************************************************

 3-nitrobenzoic acid.mop

  ATOM    CHEMICAL      BOND LENGTH      BOND ANGLE     TWIST ANGLE 
 NUMBER    SYMBOL       (ANGSTROMS)      (DEGREES)       (DEGREES) 
   (I)                     NA:I           NB:NA:I       NC:NB:NA:I       NA    NB    NC 
     1       C          0.00000000       0.0000000       0.0000000        0     0     0
     2       C          1.33958800  *    0.0000000       0.0000000        1     0     0
     3       C          1.34016400  *  120.0960420  *    0.0000000        2     1     0
     4       C          1.34817000  *  121.3105030  *   -0.0398200  *     3     2     1
     5       C          1.35067700  *  117.4953580  *   -0.0666720  *     4     3     2
     6       C          1.34537700  *  120.2866300  *    0.0912840  *     1     2     3
     7       C          1.36516700  *  118.9697110  * -179.9232500  *     6     1     2
     8       O          1.35847200  *  121.6894240  *    0.2856910  *     7     6     1
     9       O          1.21278900  *  124.7829710  * -179.9725120  *     7     6     1
    10       N          1.25904300  *  120.3363160  *  179.8924820  *     4     3     2
    11       O          1.31273500  *  123.6299360  * -179.8842040  *    10     4     3
    12       O          1.31397300  *  122.0722690  *   -0.0516650  *    10     4     3
    13       H          1.10262800  *  117.4075270  * -179.9231540  *     1     2     3
    14       H          1.10353600  *  119.9106940  * -179.9801000  *     2     1     6
    15       H          1.10339400  *  116.7463740  *  179.9154920  *     3     2     1
    16       H          1.10254300  *  118.9655230  *  179.9849630  *     5     4     3
    17       H          0.97067200  *  108.0722240  *  179.0966680  *     8     7     6
 


          CARTESIAN COORDINATES 

    NO.       ATOM           X           Y           Z

     1         C          0.0000      0.0000      0.0000
     2         C          1.3396      0.0000      0.0000
     3         C          2.0116      1.1595      0.0000
     4         C          1.3664      2.3432     -0.0008
     5         C          0.0160      2.3174     -0.0030
     6         C         -0.6785      1.1617     -0.0019
     7         C         -2.0433      1.1304     -0.0002
     8         O         -2.7302     -0.0416      0.0090
     9         O         -2.7579      2.1103     -0.0021
    10         N          2.0162      3.4216      0.0013
    11         O          1.4552      4.6085      0.0029
    12         O          3.3299      3.4446      0.0052
    13         H         -0.5076     -0.9789      0.0013
    14         H          1.8899     -0.9565      0.0012
    15         H          3.1131      1.0950      0.0015
    16         H         -0.5364      3.2716     -0.0034
    17         H         -3.6785      0.1652      0.0231

 General Reference for PM7:
 "Optimization of Parameters for Semiempirical Methods VI: More Modifications to the 
 NDDO Approximations and Re-optimization of Parameters", J. J. P. Stewart, J. Mol. Mod., 1:32, 19 (2013)
 http://www.springerlink.com/openurl.asp?genre=article&id=doi:10.1007/s00894-012-1667-x

           Empirical Formula: C7 H5 N O4  =    17 atoms



      MOLECULAR POINT GROUP   :   Cs  


      RHF CALCULATION, NO. OF DOUBLY OCCUPIED LEVELS = 31


          Geometry optimization using EF

          DIAGONAL MATRIX USED AS START HESSIAN

 CYCLE:     1 TIME:   0.027 TIME LEFT:  2.00D  GRAD.:   586.127 HEAT: -8.474178
 CYCLE:     2 TIME:   0.094 TIME LEFT:  2.00D  GRAD.:   616.939 HEAT: -16.80401
 CYCLE:     3 TIME:   0.016 TIME LEFT:  2.00D  GRAD.:   229.151 HEAT: -53.69952
 CYCLE:     4 TIME:   0.016 TIME LEFT:  2.00D  GRAD.:   359.570 HEAT: -63.37295
 CYCLE:     5 TIME:   0.047 TIME LEFT:  2.00D  GRAD.:   287.852 HEAT: -64.96763
 CYCLE:     6 TIME:   0.051 TIME LEFT:  2.00D  GRAD.:    57.985 HEAT: -67.49322
 CYCLE:     7 TIME:   0.027 TIME LEFT:  2.00D  GRAD.:    50.733 HEAT: -68.22227
 CYCLE:     8 TIME:   0.078 TIME LEFT:  2.00D  GRAD.:    18.329 HEAT: -68.51739
 CYCLE:     9 TIME:   0.020 TIME LEFT:  2.00D  GRAD.:    14.785 HEAT: -68.68156
 CYCLE:    10 TIME:   0.016 TIME LEFT:  2.00D  GRAD.:    11.132 HEAT: -68.78683
 CYCLE:    11 TIME:   0.012 TIME LEFT:  2.00D  GRAD.:    16.489 HEAT: -68.83316
 CYCLE:    12 TIME:   0.020 TIME LEFT:  2.00D  GRAD.:     3.214 HEAT: -68.86861
 CYCLE:    13 TIME:   0.000 TIME LEFT:  2.00D  GRAD.:     1.799 HEAT: -68.87142
 CYCLE:    14 TIME:   0.012 TIME LEFT:  2.00D  GRAD.:     1.250 HEAT: -68.87286
 CYCLE:    15 TIME:   0.016 TIME LEFT:  2.00D  GRAD.:     0.438 HEAT: -68.87353

     GRADIENT =  0.43808 IS LESS THAN CUTOFF =  1.00000



 -------------------------------------------------------------------------------

 3-nitrobenzoic acid.mop



     GEOMETRY OPTIMISED USING EIGENVECTOR FOLLOWING (EF).     
     SCF FIELD WAS ACHIEVED                                   


                              PM7 CALCULATION
                                                       MOPAC2016 (Version: 19.179W)
                                                       Fri Jul 26 15:01:03 2019
                                                       No. of days remaining = 337




          FINAL HEAT OF FORMATION =        -68.87354 KCAL/MOL =    -288.16687 KJ/MOL


          TOTAL ENERGY            =      -2291.87379 EV
          ELECTRONIC ENERGY       =     -10552.57470 EV  POINT GROUP:     Cs  
          CORE-CORE REPULSION     =       8260.70091 EV
          COSMO AREA              =        178.58 SQUARE ANGSTROMS
          COSMO VOLUME            =        175.53 CUBIC ANGSTROMS

          GRADIENT NORM           =          0.43808 = 0.10625 PER ATOM
          IONIZATION POTENTIAL    =         11.130141 EV
          HOMO LUMO ENERGIES (EV) =        -11.130 -1.697
          NO. OF FILLED LEVELS    =         31
          MOLECULAR WEIGHT        =        167.1208

          MOLECULAR DIMENSIONS (Angstroms)

            Atom       Atom       Distance
            H    17    O    12     7.90390
            H    14    O    11     5.23068
            O     9    O    12     0.00742


          SCF CALCULATIONS        =         19
 
          WALL-CLOCK TIME         =          0.488 SECONDS
          COMPUTATION TIME        =          0.686 SECONDS




  ATOM    CHEMICAL      BOND LENGTH      BOND ANGLE     TWIST ANGLE 
 NUMBER    SYMBOL       (ANGSTROMS)      (DEGREES)       (DEGREES) 
   (I)                     NA:I           NB:NA:I       NC:NB:NA:I       NA    NB    NC 
     1       C          0.00000000       0.0000000       0.0000000        0     0     0
     2       C          1.39484184  *    0.0000000       0.0000000        1     0     0
     3       C          1.39132441  *  120.1900368  *    0.0000000        2     1     0
     4       C          1.39974668  *  119.2062917  *   -0.0168089  *     3     2     1
     5       C          1.39569860  *  121.4406086  *    0.0055755  *     4     3     2
     6       C          1.39715492  *  119.9335050  *    0.0227477  *     1     2     3
     7       C          1.47234189  *  121.3155650  * -179.9949804  *     6     1     2
     8       O          1.35965277  *  111.4017400  *    0.1209984  *     7     6     1
     9       O          1.20310084  *  127.8956317  * -179.9104349  *     7     6     1
    10       N          1.45656658  *  119.2041015  * -179.9983921  *     4     3     2
    11       O          1.21873460  *  118.1287425  *  179.9789946  *    10     4     3
    12       O          1.22028916  *  117.8923940  *   -0.0245298  *    10     4     3
    13       H          1.09560325  *  120.0468986  * -179.9807092  *     1     2     3
    14       H          1.09058280  *  119.8657036  * -179.9892522  *     2     1     6
    15       H          1.09652860  *  120.6955048  *  179.9756992  *     3     2     1
    16       H          1.10123430  *  120.9382706  * -179.9965032  *     5     4     3
    17       H          0.99100843  *  113.1729180  *  179.7884968  *     8     7     6

                             CARTESIAN COORDINATES

   1    C        0.000000000     0.000000000     0.000000000
   2    C        1.394841845     0.000000000     0.000000000
   3    C        2.094496663     1.202608309     0.000000000
   4    C        1.381890475     2.407383413    -0.000358439
   5    C       -0.013659200     2.427770081    -0.000599451
   6    C       -0.697172747     1.210781478    -0.000480707
   7    C       -2.169086312     1.246293169    -0.000384608
   8    O       -2.695618263    -0.007265405     0.002881206
   9    O       -2.884947308     2.213242606    -0.002240543
  10    N        2.114401735     3.666356586    -0.000394102
  11    O        1.474370983     4.703503714    -0.001102798
  12    O        3.333707742     3.617387893     0.000355305
  13    H       -0.548578086    -0.948371484     0.000319305
  14    H        1.937917989    -0.945747912     0.000198076
  15    H        3.190982520     1.212281891     0.000399909
  16    H       -0.565962153     3.380491609    -0.000938641
  17    H       -3.686597684    -0.013989371     0.006387176


           Empirical Formula: C7 H5 N O4  =    17 atoms



      MOLECULAR POINT GROUP   :   Cs  


                  EIGENVALUES  
 -37.46949 -32.26437 -31.77415 -30.88636 -30.46159 -28.08014 -27.48991 -25.11096
 -23.85078 -21.89827 -20.94662 -19.38619 -18.17891 -17.79061 -17.53023 -17.32598
 -16.74977 -16.18619 -16.10553 -15.72655 -14.37583 -14.35684 -13.81826 -13.30205
 -12.61718 -11.70002 -11.52415 -11.48280 -11.31397 -11.18494 -11.13014  -1.69675
  -1.30765   0.02185   0.44564   0.67292   1.44793   1.50477   2.55091   2.92505
   3.35127   3.46406   3.65352   3.82952   4.08728   4.16477   4.35384   4.75668
   4.86751   4.98770   5.03725   5.08176   5.17569


              NET ATOMIC CHARGES AND DIPOLE CONTRIBUTIONS

  ATOM NO.   TYPE          CHARGE      No. of ELECS.   s-Pop       p-Pop       
    1          C          -0.018646        4.0186     1.09808     2.92057
    2          C          -0.198456        4.1985     1.08268     3.11577
    3          C          -0.038967        4.0390     1.09735     2.94162
    4          C          -0.111487        4.1115     1.07592     3.03557
    5          C          -0.018747        4.0187     1.09957     2.91918
    6          C          -0.166241        4.1662     1.06488     3.10136
    7          C           0.637107        3.3629     1.10226     2.26064
    8          O          -0.560658        6.5607     1.83925     4.72141
    9          O          -0.476229        6.4762     1.87822     4.59801
   10          N           0.624288        4.3757     1.44984     2.92587
   11          O          -0.382540        6.3825     1.94157     4.44097
   12          O          -0.398402        6.3984     1.94176     4.45664
   13          H           0.179579        0.8204     0.82042
   14          H           0.170637        0.8294     0.82936
   15          H           0.187171        0.8128     0.81283
   16          H           0.208218        0.7918     0.79178
   17          H           0.363372        0.6366     0.63663
 DIPOLE           X         Y         Z       TOTAL
 POINT-CHG.    -0.448    -5.646     0.008     5.664
 HYBRID        -0.375     0.295     0.001     0.477
 SUM           -0.823    -5.351     0.009     5.414


          ATOMIC ORBITAL ELECTRON POPULATIONS

     Atom    s        px        py        pz   
    1  C   1.09808   1.00036   1.05532   0.86489
    2  C   1.08268   1.01037   1.06553   1.03987
    3  C   1.09735   1.09468   0.96158   0.88535
    4  C   1.07592   0.97462   0.91117   1.14978
    5  C   1.09957   0.98347   1.06760   0.86811
    6  C   1.06488   0.98188   1.00018   1.11930
    7  C   1.10226   0.85277   0.73671   0.67116
    8  O   1.83925   1.40796   1.44391   1.86954
    9  O   1.87822   1.64441   1.45707   1.49653
   10  N   1.44984   0.98233   0.99906   0.94449
   11  O   1.94157   1.64851   1.25183   1.54063
   12  O   1.94176   0.98480   1.92151   1.55034
   13  H   0.82042
   14  H   0.82936
   15  H   0.81283
   16  H   0.79178
   17  H   0.63663

 **********************
 *                    *
 * JOB ENDED NORMALLY *
 *                    *
 **********************



 TOTAL JOB TIME:             0.49 SECONDS

 == MOPAC DONE ==
