 *******************************************************************************
 ** Site#: 32691        For non-commercial use only    Version 19.179W 32BITS **
 *******************************************************************************
 ** Cite this program as: MOPAC2016, Version: 19.179W, James J. P. Stewart,   **
 ** Stewart Computational Chemistry, web: HTTP://OpenMOPAC.net. Days left: 339**
 *******************************************************************************
 **                                                                           **
 **                                MOPAC2016                                  **
 **                                                                           **
 *******************************************************************************

                              PM7 CALCULATION RESULTS

 *******************************************************************************
 *  CALCULATION DONE:                                Wed Jul 24 15:35:53 2019  *
 *  T=         - A TIME OF 172800.0 SECONDS REQUESTED
 *  DUMP=N     - RESTART FILE WRITTEN EVERY  7200.000 SECONDS
 *******************************************************************************

 4-chloro-3-nitrophenol.mop

  ATOM    CHEMICAL      BOND LENGTH      BOND ANGLE     TWIST ANGLE 
 NUMBER    SYMBOL       (ANGSTROMS)      (DEGREES)       (DEGREES) 
   (I)                     NA:I           NB:NA:I       NC:NB:NA:I       NA    NB    NC 
     1       C          0.00000000       0.0000000       0.0000000        0     0     0
     2       C          1.33890000  *    0.0000000       0.0000000        1     0     0
     3       C          1.33893700  *  120.1770200  *    0.0000000        2     1     0
     4       C          1.34880500  *  122.4116860  *   -0.0612870  *     3     2     1
     5       C          1.35632400  *  118.5724550  *   -0.0965630  *     4     3     2
     6       C          1.34224800  *  117.1266390  *    0.3326940  *     1     2     3
     7       N          1.25713500  *  125.7433080  *  179.9515920  *     5     4     3
     8       O          1.31427300  *  124.0059710  * -179.8395950  *     7     5     4
     9       O          1.30174300  *  123.3463270  *   -0.0568860  *     7     5     4
    10       O          1.36035100  *  121.5987280  *  179.8760490  *     1     2     3
    11      Cl          1.74684200  *  110.7665420  *  179.9460090  *     4     3     2
    12       H          1.10290100  *  119.5749610  * -179.7114100  *     2     1     6
    13       H          1.10511000  *  116.2681150  *  179.9211950  *     3     2     1
    14       H          1.10388300  *  114.1516300  *  179.7369820  *     6     1     2
    15       H          0.97081400  *  109.7638640  * -174.8637750  *    10     1     2
 


          CARTESIAN COORDINATES 

    NO.       ATOM           X           Y           Z

     1         C          0.0000      0.0000      0.0000
     2         C          1.3389      0.0000      0.0000
     3         C          2.0119      1.1575      0.0000
     4         C          1.3910      2.3548     -0.0012
     5         C          0.0350      2.3823     -0.0045
     6         C         -0.6120      1.1946     -0.0069
     7         N         -0.6786      3.4173     -0.0051
     8         O         -1.9928      3.4041     -0.0053
     9         O         -0.1894      4.6237     -0.0015
    10         O         -0.7128     -1.1587     -0.0025
    11        Cl          2.5558      3.6566      0.0007
    12         H          1.8832     -0.9592      0.0007
    13         H          3.1145      1.0821      0.0014
    14         H         -1.7144      1.1373     -0.0112
    15         H         -1.6598     -0.9613     -0.0839

 General Reference for PM7:
 "Optimization of Parameters for Semiempirical Methods VI: More Modifications to the 
 NDDO Approximations and Re-optimization of Parameters", J. J. P. Stewart, J. Mol. Mod., 1:32, 19 (2013)
 http://www.springerlink.com/openurl.asp?genre=article&id=doi:10.1007/s00894-012-1667-x

           Empirical Formula: C6 H4 N O3 Cl  =    15 atoms



      MOLECULAR POINT GROUP   :   Cs  


      RHF CALCULATION, NO. OF DOUBLY OCCUPIED LEVELS = 29


          Geometry optimization using EF

          DIAGONAL MATRIX USED AS START HESSIAN

 CYCLE:     1 TIME:   0.156 TIME LEFT:  2.00D  GRAD.:   636.397 HEAT:  24.30736
 CYCLE:     2 TIME:   0.062 TIME LEFT:  2.00D  GRAD.:   597.148 HEAT:  23.50496
 CYCLE:     3 TIME:   0.031 TIME LEFT:  2.00D  GRAD.:   318.474 HEAT: -13.04538
 CYCLE:     4 TIME:   0.031 TIME LEFT:  2.00D  GRAD.:   806.293 HEAT: -14.79388
 CYCLE:     5 TIME:   0.016 TIME LEFT:  2.00D  GRAD.:   159.968 HEAT: -27.64174
 CYCLE:     6 TIME:   0.016 TIME LEFT:  2.00D  GRAD.:   106.225 HEAT: -28.39483
 CYCLE:     7 TIME:   0.031 TIME LEFT:  2.00D  GRAD.:    53.652 HEAT: -29.65675
 CYCLE:     8 TIME:   0.016 TIME LEFT:  2.00D  GRAD.:    49.083 HEAT: -30.07906
 CYCLE:     9 TIME:   0.016 TIME LEFT:  2.00D  GRAD.:    12.900 HEAT: -30.42232
 CYCLE:    10 TIME:   0.031 TIME LEFT:  2.00D  GRAD.:    12.809 HEAT: -30.47320
 CYCLE:    11 TIME:   0.016 TIME LEFT:  2.00D  GRAD.:     5.989 HEAT: -30.55716
 CYCLE:    12 TIME:   0.016 TIME LEFT:  2.00D  GRAD.:     3.075 HEAT: -30.58072
 CYCLE:    13 TIME:   0.016 TIME LEFT:  2.00D  GRAD.:     1.478 HEAT: -30.58654
 CYCLE:    14 TIME:   0.016 TIME LEFT:  2.00D  GRAD.:     1.036 HEAT: -30.58984
 CYCLE:    15 TIME:   0.016 TIME LEFT:  2.00D  GRAD.:     1.486 HEAT: -30.59270
 CYCLE:    16 TIME:   0.016 TIME LEFT:  2.00D  GRAD.:     1.070 HEAT: -30.59565
 CYCLE:    17 TIME:   0.016 TIME LEFT:  2.00D  GRAD.:     0.907 HEAT: -30.59798

     GRADIENT =  0.90744 IS LESS THAN CUTOFF =  1.00000



 -------------------------------------------------------------------------------

 4-chloro-3-nitrophenol.mop



     GEOMETRY OPTIMISED USING EIGENVECTOR FOLLOWING (EF).     
     SCF FIELD WAS ACHIEVED                                   


                              PM7 CALCULATION
                                                       MOPAC2016 (Version: 19.179W)
                                                       Wed Jul 24 15:35:53 2019
                                                       No. of days remaining = 339




          FINAL HEAT OF FORMATION =        -30.59799 KCAL/MOL =    -128.02198 KJ/MOL


          TOTAL ENERGY            =      -2126.77056 EV
          ELECTRONIC ENERGY       =      -9538.07643 EV  POINT GROUP:     Cs  
          CORE-CORE REPULSION     =       7411.30587 EV
          COSMO AREA              =        172.28 SQUARE ANGSTROMS
          COSMO VOLUME            =        170.57 CUBIC ANGSTROMS

          GRADIENT NORM           =          0.90744 = 0.23430 PER ATOM
          IONIZATION POTENTIAL    =          9.902883 EV
          HOMO LUMO ENERGIES (EV) =         -9.903 -1.660
          NO. OF FILLED LEVELS    =         29
          MOLECULAR WEIGHT        =        173.5555

          MOLECULAR DIMENSIONS (Angstroms)

            Atom       Atom       Distance
            H    15   Cl    11     6.30487
            H    12    O     8     5.87694
           Cl    11    O    10     0.02159


          SCF CALCULATIONS        =         21
 
          WALL-CLOCK TIME         =          0.609 SECONDS
          COMPUTATION TIME        =          0.842 SECONDS




  ATOM    CHEMICAL      BOND LENGTH      BOND ANGLE     TWIST ANGLE 
 NUMBER    SYMBOL       (ANGSTROMS)      (DEGREES)       (DEGREES) 
   (I)                     NA:I           NB:NA:I       NC:NB:NA:I       NA    NB    NC 
     1       C          0.00000000       0.0000000       0.0000000        0     0     0
     2       C          1.40568045  *    0.0000000       0.0000000        1     0     0
     3       C          1.38422896  *  118.5890012  *    0.0000000        2     1     0
     4       C          1.40027722  *  120.0326580  *   -0.0970188  *     3     2     1
     5       C          1.39137046  *  120.9486225  *    0.0088783  *     4     3     2
     6       C          1.39155271  *  122.0865500  *    0.1409303  *     1     2     3
     7       N          1.46342299  *  123.3064443  * -179.9198389  *     5     4     3
     8       O          1.22220455  *  116.9764295  * -179.9788851  *     7     5     4
     9       O          1.21538262  *  119.4930788  *    0.0182380  *     7     5     4
    10       O          1.35320404  *  115.0311276  * -179.8006160  *     1     2     3
    11      Cl          1.69510026  *  116.3866145  * -179.9882395  *     4     3     2
    12       H          1.09051250  *  119.6185380  * -179.9051222  *     2     1     6
    13       H          1.09420777  *  119.8178631  *  179.9022093  *     3     2     1
    14       H          1.09360499  *  121.2525345  *  179.9557614  *     6     1     2
    15       H          0.99206800  *  112.4346981  * -178.4462354  *    10     1     2

                             CARTESIAN COORDINATES

   1    C        0.000000000     0.000000000     0.000000000
   2    C        1.405680447     0.000000000     0.000000000
   3    C        2.068066268     1.215456641     0.000000000
   4    C        1.338961744     2.410939256    -0.002052743
   5    C       -0.052368317     2.400503399    -0.003928070
   6    C       -0.739192391     1.178984794    -0.002899952
   7    N       -0.865104735     3.617487862    -0.007824393
   8    O       -2.078812831     3.473627662    -0.008750310
   9    O       -0.317666988     4.702597309    -0.009898765
  10    O       -0.572554943    -1.226101057     0.004266734
  11   Cl        2.243117923     3.844768560    -0.002181899
  12    H        1.944636985    -0.948020454     0.000761989
  13    H        3.162021160     1.238923728     0.001620314
  14    H       -1.832681291     1.163064916    -0.003582650
  15    H       -1.563298987    -1.181389097    -0.020753002


           Empirical Formula: C6 H4 N O3 Cl  =    15 atoms



      MOLECULAR POINT GROUP   :   Cs  


                  EIGENVALUES  
 -37.49681 -32.19261 -31.13104 -30.86479 -27.95440 -27.53116 -25.42474 -24.42886
 -22.41415 -21.42759 -19.60494 -18.57620 -17.54290 -17.51962 -17.09463 -16.59538
 -15.74282 -15.47567 -14.79794 -13.86914 -13.74768 -13.48581 -11.86458 -11.77141
 -11.44464 -11.36747 -11.23052 -10.96545  -9.90288  -1.66020  -0.93033   0.18789
   0.23081   0.69883   1.35996   1.54402   2.86995   3.15866   3.29520   3.49334
   3.68874   4.06857   4.42216   4.62267   4.83814   4.96278   5.13466   5.26728
  68.59600  68.63096  68.82422  69.12551  69.19026


              NET ATOMIC CHARGES AND DIPOLE CONTRIBUTIONS

  ATOM NO.   TYPE          CHARGE      No. of ELECS.   s-Pop       p-Pop       d-Pop       
    1          C           0.267771        3.7322     1.07632     2.65591
    2          C          -0.175624        4.1756     1.08465     3.09097
    3          C          -0.122453        4.1225     1.08554     3.03692
    4          C          -0.021316        4.0213     1.09155     2.92977
    5          C          -0.027836        4.0278     1.07416     2.95367
    6          C          -0.246868        4.2469     1.08419     3.16268
    7          N           0.616742        4.3833     1.45066     2.93260
    8          O          -0.398806        6.3988     1.94217     4.45664
    9          O          -0.352444        6.3524     1.93938     4.41307
   10          O          -0.448485        6.4485     1.83934     4.60914
   11         Cl           0.003698        6.9963     1.98134     5.00559     0.00937
   12          H           0.186078        0.8139     0.81392
   13          H           0.181986        0.8180     0.81801
   14          H           0.201344        0.7987     0.79866
   15          H           0.336213        0.6638     0.66379
 DIPOLE           X         Y         Z       TOTAL
 POINT-CHG.     1.780    -4.417    -0.030     4.762
 HYBRID        -0.818    -0.026    -0.004     0.818
 SUM            0.962    -4.443    -0.034     4.546


          ATOMIC ORBITAL ELECTRON POPULATIONS

     Atom    s        px        py        pz      x^2-y^2     xz        z^2       yz        xy
    1  C   1.07632   0.93184   0.81494   0.90913
    2  C   1.08465   0.99727   1.07191   1.02179
    3  C   1.08554   1.09366   0.96277   0.98048
    4  C   1.09155   0.94746   0.94057   1.04174
    5  C   1.07416   0.95146   0.91379   1.08842
    6  C   1.08419   1.11019   0.97036   1.08213
    7  N   1.45066   0.98594   0.99502   0.95165
    8  O   1.94217   0.99443   1.90815   1.55405
    9  O   1.93938   1.71793   1.17147   1.52367
   10  O   1.83934   1.36961   1.34594   1.89358
   11 Cl   1.98134   1.71220   1.34144   1.95195   0.00343   0.00045   0.00187   0.00055   0.00308
   12  H   0.81392
   13  H   0.81801
   14  H   0.79866
   15  H   0.66379

 **********************
 *                    *
 * JOB ENDED NORMALLY *
 *                    *
 **********************



 TOTAL JOB TIME:             0.62 SECONDS

 == MOPAC DONE ==
