 *******************************************************************************
 ** Site#: 32691        For non-commercial use only    Version 19.179W 32BITS **
 *******************************************************************************
 ** Cite this program as: MOPAC2016, Version: 19.179W, James J. P. Stewart,   **
 ** Stewart Computational Chemistry, web: HTTP://OpenMOPAC.net. Days left: 337**
 *******************************************************************************
 **                                                                           **
 **                                MOPAC2016                                  **
 **                                                                           **
 *******************************************************************************

                              PM7 CALCULATION RESULTS

 *******************************************************************************
 *  CALCULATION DONE:                                Fri Jul 26 14:15:59 2019  *
 *  T=         - A TIME OF 172800.0 SECONDS REQUESTED
 *  DUMP=N     - RESTART FILE WRITTEN EVERY  7200.000 SECONDS
 *******************************************************************************

 4-chloro-3-nitrophenol2.mop

  ATOM    CHEMICAL      BOND LENGTH      BOND ANGLE     TWIST ANGLE 
 NUMBER    SYMBOL       (ANGSTROMS)      (DEGREES)       (DEGREES) 
   (I)                     NA:I           NB:NA:I       NC:NB:NA:I       NA    NB    NC 
     1       C          0.00000000       0.0000000       0.0000000        0     0     0
     2       C          1.34284700  *    0.0000000       0.0000000        1     0     0
     3       C          1.33870400  *  117.1408590  *    0.0000000        2     1     0
     4       C          1.33866900  *  120.1737270  *    0.9486060  *     3     2     1
     5       C          1.34876400  *  122.4168640  *   -0.5825110  *     4     3     2
     6       C          1.35262600  *  124.2753930  *   -0.7143420  *     1     2     3
     7       O          1.36073700  *  122.0422580  * -179.2345680  *     2     1     6
     8       N          1.25714900  *  117.0769090  *  179.8171730  *     6     1     2
     9       O          1.31416200  *  124.2309330  *   -0.0614610  *     8     6     1
    10       O          1.30185000  *  123.1823690  * -179.6084810  *     8     6     1
    11      Cl          1.74720000  *  110.6147490  *  179.9484050  *     5     4     3
    12       H          1.10392100  *  114.2127680  *  179.1080990  *     1     2     3
    13       H          1.10292600  *  119.6545560  * -179.2279770  *     3     2     1
    14       H          1.10512800  *  116.2340260  *  179.5999490  *     4     3     2
    15       H          0.97098200  *  108.9036430  *  171.6702930  *     7     2     1
 


          CARTESIAN COORDINATES 

    NO.       ATOM           X           Y           Z

     1         C          0.0000      0.0000      0.0000
     2         C          1.3428      0.0000      0.0000
     3         C          1.9535      1.1913      0.0000
     4         C          1.2308      2.3179      0.0192
     5         C         -0.1180      2.3116      0.0274
     6         C         -0.7618      1.1176      0.0139
     7         O          2.0648     -1.1531     -0.0298
     8         N         -2.0090      0.9602      0.0084
     9         O         -2.6063     -0.2103     -0.0110
    10         O         -2.8524      1.9519      0.0129
    11        Cl         -0.7406      3.9439      0.0540
    12         H         -0.4527     -1.0067     -0.0157
    13         H          3.0553      1.2397     -0.0129
    14         H          1.8013      3.2643      0.0248
    15         H          3.0021     -0.9341     -0.1573

 General Reference for PM7:
 "Optimization of Parameters for Semiempirical Methods VI: More Modifications to the 
 NDDO Approximations and Re-optimization of Parameters", J. J. P. Stewart, J. Mol. Mod., 1:32, 19 (2013)
 http://www.springerlink.com/openurl.asp?genre=article&id=doi:10.1007/s00894-012-1667-x

           Empirical Formula: C6 H4 N O3 Cl  =    15 atoms



      MOLECULAR POINT GROUP   :   C1  


      RHF CALCULATION, NO. OF DOUBLY OCCUPIED LEVELS = 29


          Geometry optimization using EF

          DIAGONAL MATRIX USED AS START HESSIAN

 CYCLE:     1 TIME:   0.016 TIME LEFT:  2.00D  GRAD.:   549.061 HEAT:  25.35619
 CYCLE:     2 TIME:   0.078 TIME LEFT:  2.00D  GRAD.:   633.852 HEAT:  22.47792
 CYCLE:     3 TIME:   0.016 TIME LEFT:  2.00D  GRAD.:   229.444 HEAT: -14.88126
 CYCLE:     4 TIME:   0.016 TIME LEFT:  2.00D  GRAD.:   411.564 HEAT: -23.40459
 CYCLE:     5 TIME:   0.016 TIME LEFT:  2.00D  GRAD.:   264.323 HEAT: -25.29045
 CYCLE:     6 TIME:   0.016 TIME LEFT:  2.00D  GRAD.:    96.871 HEAT: -28.30755
 CYCLE:     7 TIME:   0.031 TIME LEFT:  2.00D  GRAD.:    96.219 HEAT: -29.18509
 CYCLE:     8 TIME:   0.016 TIME LEFT:  2.00D  GRAD.:    48.605 HEAT: -29.26903
 CYCLE:     9 TIME:   0.016 TIME LEFT:  2.00D  GRAD.:    25.270 HEAT: -29.69670
 CYCLE:    10 TIME:   0.047 TIME LEFT:  2.00D  GRAD.:    20.048 HEAT: -29.78742
 CYCLE:    11 TIME:   0.016 TIME LEFT:  2.00D  GRAD.:    11.812 HEAT: -29.86577
 CYCLE:    12 TIME:   0.016 TIME LEFT:  2.00D  GRAD.:     6.989 HEAT: -29.90783
 CYCLE:    13 TIME:   0.016 TIME LEFT:  2.00D  GRAD.:     3.323 HEAT: -29.92737
 CYCLE:    14 TIME:   0.031 TIME LEFT:  2.00D  GRAD.:     1.246 HEAT: -29.93419
 CYCLE:    15 TIME:   0.016 TIME LEFT:  2.00D  GRAD.:     1.892 HEAT: -29.93949
 CYCLE:    16 TIME:   0.016 TIME LEFT:  2.00D  GRAD.:     2.167 HEAT: -29.94733
 CYCLE:    17 TIME:   0.016 TIME LEFT:  2.00D  GRAD.:     1.628 HEAT: -29.95401
 CYCLE:    18 TIME:   0.016 TIME LEFT:  2.00D  GRAD.:     1.189 HEAT: -29.95993
 CYCLE:    19 TIME:   0.031 TIME LEFT:  2.00D  GRAD.:     1.199 HEAT: -29.96560
 CYCLE:    20 TIME:   0.016 TIME LEFT:  2.00D  GRAD.:     0.560 HEAT: -29.96639

     GRADIENT =  0.56050 IS LESS THAN CUTOFF =  1.00000



 -------------------------------------------------------------------------------

 4-chloro-3-nitrophenol2.mop



     GEOMETRY OPTIMISED USING EIGENVECTOR FOLLOWING (EF).     
     SCF FIELD WAS ACHIEVED                                   


                              PM7 CALCULATION
                                                       MOPAC2016 (Version: 19.179W)
                                                       Fri Jul 26 14:15:59 2019
                                                       No. of days remaining = 337




          FINAL HEAT OF FORMATION =        -29.96639 KCAL/MOL =    -125.37938 KJ/MOL


          TOTAL ENERGY            =      -2126.74431 EV
          ELECTRONIC ENERGY       =      -9536.79738 EV  POINT GROUP:     Cs  
          CORE-CORE REPULSION     =       7410.05307 EV
          COSMO AREA              =        172.30 SQUARE ANGSTROMS
          COSMO VOLUME            =        170.81 CUBIC ANGSTROMS

          GRADIENT NORM           =          0.56050 = 0.14472 PER ATOM
          IONIZATION POTENTIAL    =          9.873911 EV
          HOMO LUMO ENERGIES (EV) =         -9.874 -1.658
          NO. OF FILLED LEVELS    =         29
          MOLECULAR WEIGHT        =        173.5555

          MOLECULAR DIMENSIONS (Angstroms)

            Atom       Atom       Distance
            H    15    O    10     6.65712
            H    14    O     9     5.19007
            H    12   Cl    11     0.01489


          SCF CALCULATIONS        =         24
 
          WALL-CLOCK TIME         =          0.484 SECONDS
          COMPUTATION TIME        =          0.842 SECONDS




  ATOM    CHEMICAL      BOND LENGTH      BOND ANGLE     TWIST ANGLE 
 NUMBER    SYMBOL       (ANGSTROMS)      (DEGREES)       (DEGREES) 
   (I)                     NA:I           NB:NA:I       NC:NB:NA:I       NA    NB    NC 
     1       C          0.00000000       0.0000000       0.0000000        0     0     0
     2       C          1.39838374  *    0.0000000       0.0000000        1     0     0
     3       C          1.39857818  *  121.9805919  *    0.0000000        2     1     0
     4       C          1.38999818  *  118.6542584  *   -0.0781724  *     3     2     1
     5       C          1.39466731  *  120.1186808  *    0.1366080  *     4     3     2
     6       C          1.39538586  *  118.5941950  *   -0.0406608  *     1     2     3
     7       O          1.35385677  *  114.9389324  *  179.9222161  *     2     1     6
     8       N          1.46412404  *  117.0442425  * -179.8170069  *     6     1     2
     9       O          1.22128606  *  117.0137474  *    0.3453470  *     8     6     1
    10       O          1.21567103  *  119.4555048  * -179.6509704  *     8     6     1
    11      Cl          1.69457166  *  116.7279378  *  179.9339037  *     5     4     3
    12       H          1.09747876  *  119.8561585  * -179.9817538  *     1     2     3
    13       H          1.08745445  *  120.8703946  *  179.9430242  *     3     2     1
    14       H          1.09404068  *  119.6387846  * -179.8368004  *     4     3     2
    15       H          0.99051849  *  112.4219535  * -179.9457652  *     7     2     1

                             CARTESIAN COORDINATES

   1    C        0.000000000     0.000000000     0.000000000
   2    C        1.398383738     0.000000000     0.000000000
   3    C        2.139115456     1.186312543     0.000000000
   4    C        1.457497810     2.397712372    -0.001664204
   5    C        0.062951715     2.416057123    -0.000415060
   6    C       -0.667835719     1.225192388     0.000869477
   7    O        1.969240223    -1.227619811     0.000795399
   8    N       -2.131418233     1.185590305     0.005006221
   9    O       -2.656476495     0.082969041     0.013939683
  10    O       -2.757651668     2.227538951    -0.000539161
  11   Cl       -0.679216437     3.939460987    -0.000867781
  12    H       -0.546351554    -0.951819053     0.000303113
  13    H        3.226365376     1.165242938     0.000928182
  14    H        2.020905807     3.335523097    -0.004398355
  15    H        2.958802742    -1.184120376     0.001633933


           Empirical Formula: C6 H4 N O3 Cl  =    15 atoms



      MOLECULAR POINT GROUP   :   Cs  


                  EIGENVALUES  
 -37.46091 -32.18844 -31.13410 -30.83244 -27.87754 -27.57759 -25.53305 -24.26110
 -22.27387 -21.62109 -19.73857 -18.22757 -17.61312 -17.47876 -17.30889 -16.30294
 -15.72964 -15.47063 -14.88669 -14.02436 -13.85703 -13.25036 -11.84185 -11.74862
 -11.39460 -11.31309 -11.24555 -10.92513  -9.87391  -1.65781  -0.89509   0.22283
   0.23649   0.71899   1.36955   1.54906   2.90732   3.15532   3.24208   3.57104
   3.67228   4.06140   4.40146   4.70469   4.82606   4.92214   5.02173   5.37664
  68.63273  68.67039  68.86598  69.15901  69.22543


              NET ATOMIC CHARGES AND DIPOLE CONTRIBUTIONS

  ATOM NO.   TYPE          CHARGE      No. of ELECS.   s-Pop       p-Pop       d-Pop       
    1          C          -0.175205        4.1752     1.08520     3.09001
    2          C           0.263568        3.7364     1.07590     2.66054
    3          C          -0.243975        4.2440     1.08370     3.16028
    4          C          -0.109713        4.1097     1.08423     3.02548
    5          C          -0.027757        4.0278     1.09033     2.93743
    6          C          -0.035099        4.0351     1.07638     2.95872
    7          O          -0.442960        6.4430     1.83934     4.60362
    8          N           0.616394        4.3836     1.45055     2.93306
    9          O          -0.390436        6.3904     1.94211     4.44833
   10          O          -0.355698        6.3557     1.93941     4.41629
   11         Cl           0.003313        6.9967     1.98126     5.00602     0.00940
   12          H           0.216213        0.7838     0.78379
   13          H           0.170387        0.8296     0.82961
   14          H           0.179459        0.8205     0.82054
   15          H           0.331507        0.6685     0.66849
 DIPOLE           X         Y         Z       TOTAL
 POINT-CHG.     6.308    -0.004    -0.011     6.308
 HYBRID         0.158    -0.399     0.001     0.429
 SUM            6.467    -0.403    -0.010     6.479


          ATOMIC ORBITAL ELECTRON POPULATIONS

     Atom    s        px        py        pz      x^2-y^2     xz        z^2       yz        xy
    1  C   1.08520   0.99840   1.06647   1.02514
    2  C   1.07590   0.93138   0.81625   0.91291
    3  C   1.08370   1.09634   0.98969   1.07424
    4  C   1.08423   0.98815   1.06376   0.97357
    5  C   1.09033   0.97143   0.91620   1.04980
    6  C   1.07638   0.88133   0.98973   1.08766
    7  O   1.83934   1.36540   1.34362   1.89460
    8  N   1.45055   1.00235   0.97828   0.95243
    9  O   1.94211   1.75358   1.14572   1.54903
   10  O   1.93941   1.67552   1.21418   1.52658
   11 Cl   1.98126   1.82204   1.23098   1.95300   0.00251   0.00032   0.00188   0.00068   0.00401
   12  H   0.78379
   13  H   0.82961
   14  H   0.82054
   15  H   0.66849

 **********************
 *                    *
 * JOB ENDED NORMALLY *
 *                    *
 **********************



 TOTAL JOB TIME:             0.52 SECONDS

 == MOPAC DONE ==
