 *******************************************************************************
 ** Site#: 32691        For non-commercial use only    Version 19.179W 32BITS **
 *******************************************************************************
 ** Cite this program as: MOPAC2016, Version: 19.179W, James J. P. Stewart,   **
 ** Stewart Computational Chemistry, web: HTTP://OpenMOPAC.net. Days left: 337**
 *******************************************************************************
 **                                                                           **
 **                                MOPAC2016                                  **
 **                                                                           **
 *******************************************************************************

                              PM7 CALCULATION RESULTS

 *******************************************************************************
 *  CALCULATION DONE:                                Fri Jul 26 14:03:08 2019  *
 *  T=         - A TIME OF 172800.0 SECONDS REQUESTED
 *  DUMP=N     - RESTART FILE WRITTEN EVERY  7200.000 SECONDS
 *******************************************************************************

 4-methyl-3-nitrophenol2.mop

  ATOM    CHEMICAL      BOND LENGTH      BOND ANGLE     TWIST ANGLE 
 NUMBER    SYMBOL       (ANGSTROMS)      (DEGREES)       (DEGREES) 
   (I)                     NA:I           NB:NA:I       NC:NB:NA:I       NA    NB    NC 
     1       C          0.00000000       0.0000000       0.0000000        0     0     0
     2       C          1.35146800  *    0.0000000       0.0000000        1     0     0
     3       C          1.34358400  *  123.8480820  *    0.0000000        2     1     0
     4       C          1.33988600  *  117.3347890  *    0.5662570  *     3     2     1
     5       C          1.33861100  *  120.2881740  *   -0.7277330  *     4     3     2
     6       C          1.35469000  *  117.5639950  *   -0.0842580  *     1     2     3
     7       O          1.36116800  *  122.0277780  *  179.2655980  *     3     2     1
     8       N          1.26018400  *  118.6279730  * -179.9995230  *     1     2     3
     9       O          1.31194000  *  125.7503150  * -179.8574760  *     8     1     2
    10       O          1.31520100  *  123.3247650  *   -0.2259740  *     8     1     2
    11       C          1.51712800  *  123.9524030  *  179.9648820  *     6     1     2
    12       H          1.10371500  *  121.2907450  *  179.7574850  *     2     1     6
    13       H          1.10281800  *  119.7027470  *  179.3214190  *     4     3     2
    14       H          1.10305800  *  117.6729140  * -179.7897690  *     5     4     3
    15       H          0.97107800  *  108.5375470  * -173.2815290  *     7     3     2
    16       H          1.11265000  *  113.0318910  * -179.9914560  *    11     6     1
    17       H          1.11351800  *  111.0548480  *  -61.6410820  *    11     6     1
    18       H          1.11351600  *  111.0667460  *   61.6324190  *    11     6     1
 


          CARTESIAN COORDINATES 

    NO.       ATOM           X           Y           Z

     1         C          0.0000      0.0000      0.0000
     2         C          1.3515      0.0000      0.0000
     3         C          2.0998      1.1159      0.0000
     4         C          1.4540      2.2898      0.0118
     5         C          0.1159      2.3243      0.0083
     6         C         -0.6269      1.2009      0.0018
     7         O          3.4602      1.0727      0.0148
     8         N         -0.6038     -1.1061      0.0000
     9         O         -1.9056     -1.2688     -0.0026
    10         O          0.0146     -2.2669     -0.0043
    11         C         -2.1346      1.3697      0.0012
    12         H          1.9247     -0.9432      0.0026
    13         H          2.0300      3.2302      0.0236
    14         H         -0.3711      3.3140      0.0148
    15         H          3.7967      1.9775      0.1196
    16         H         -2.4533      2.4358      0.0028
    17         H         -2.5866      0.9253     -0.9142
    18         H         -2.5878      0.9220      0.9145

 General Reference for PM7:
 "Optimization of Parameters for Semiempirical Methods VI: More Modifications to the 
 NDDO Approximations and Re-optimization of Parameters", J. J. P. Stewart, J. Mol. Mod., 1:32, 19 (2013)
 http://www.springerlink.com/openurl.asp?genre=article&id=doi:10.1007/s00894-012-1667-x

           Empirical Formula: C7 H7 N O3  =    18 atoms



      MOLECULAR POINT GROUP   :   C1  


      RHF CALCULATION, NO. OF DOUBLY OCCUPIED LEVELS = 29


          Geometry optimization using EF

          DIAGONAL MATRIX USED AS START HESSIAN

 CYCLE:     1 TIME:   0.047 TIME LEFT:  2.00D  GRAD.:   557.398 HEAT:  19.46667
 CYCLE:     2 TIME:   0.047 TIME LEFT:  2.00D  GRAD.:   595.519 HEAT:  15.02303
 CYCLE:     3 TIME:   0.016 TIME LEFT:  2.00D  GRAD.:   232.958 HEAT: -19.92177
 CYCLE:     4 TIME:   0.016 TIME LEFT:  2.00D  GRAD.:   542.286 HEAT: -25.55607
 CYCLE:     5 TIME:   0.016 TIME LEFT:  2.00D  GRAD.:   273.829 HEAT: -28.84654
 CYCLE:     6 TIME:   0.016 TIME LEFT:  2.00D  GRAD.:   116.145 HEAT: -31.62124
 CYCLE:     7 TIME:   0.000 TIME LEFT:  2.00D  GRAD.:    76.273 HEAT: -32.64729
 CYCLE:     8 TIME:   0.031 TIME LEFT:  2.00D  GRAD.:    24.604 HEAT: -33.23686
 CYCLE:     9 TIME:   0.016 TIME LEFT:  2.00D  GRAD.:    19.658 HEAT: -33.34010
 CYCLE:    10 TIME:   0.000 TIME LEFT:  2.00D  GRAD.:    29.244 HEAT: -33.36305
 CYCLE:    11 TIME:   0.016 TIME LEFT:  2.00D  GRAD.:    18.023 HEAT: -33.53954
 CYCLE:    12 TIME:   0.016 TIME LEFT:  2.00D  GRAD.:     3.898 HEAT: -33.58206
 CYCLE:    13 TIME:   0.016 TIME LEFT:  2.00D  GRAD.:     2.958 HEAT: -33.60286
 CYCLE:    14 TIME:   0.016 TIME LEFT:  2.00D  GRAD.:     1.314 HEAT: -33.61017
 CYCLE:    15 TIME:   0.016 TIME LEFT:  2.00D  GRAD.:     0.919 HEAT: -33.61253

     GRADIENT =  0.91883 IS LESS THAN CUTOFF =  1.00000



 -------------------------------------------------------------------------------

 4-methyl-3-nitrophenol2.mop



     GEOMETRY OPTIMISED USING EIGENVECTOR FOLLOWING (EF).     
     SCF FIELD WAS ACHIEVED                                   


                              PM7 CALCULATION
                                                       MOPAC2016 (Version: 19.179W)
                                                       Fri Jul 26 14:03:08 2019
                                                       No. of days remaining = 337




          FINAL HEAT OF FORMATION =        -33.61254 KCAL/MOL =    -140.63487 KJ/MOL


          TOTAL ENERGY            =      -2023.48816 EV
          ELECTRONIC ENERGY       =      -9587.98725 EV  POINT GROUP:     Cs  
          CORE-CORE REPULSION     =       7564.49910 EV
          COSMO AREA              =        171.87 SQUARE ANGSTROMS
          COSMO VOLUME            =        170.41 CUBIC ANGSTROMS

          GRADIENT NORM           =          0.91883 = 0.21657 PER ATOM
          IONIZATION POTENTIAL    =          9.649822 EV
          HOMO LUMO ENERGIES (EV) =         -9.650 -1.331
          NO. OF FILLED LEVELS    =         29
          MOLECULAR WEIGHT        =        153.1372

          MOLECULAR DIMENSIONS (Angstroms)

            Atom       Atom       Distance
            H    17    H    15     6.67758
            H    14    O    10     5.65890
            H    18    H    15     1.74282


          SCF CALCULATIONS        =         18
 
          WALL-CLOCK TIME         =          0.312 SECONDS
          COMPUTATION TIME        =          0.499 SECONDS




  ATOM    CHEMICAL      BOND LENGTH      BOND ANGLE     TWIST ANGLE 
 NUMBER    SYMBOL       (ANGSTROMS)      (DEGREES)       (DEGREES) 
   (I)                     NA:I           NB:NA:I       NC:NB:NA:I       NA    NB    NC 
     1       C          0.00000000       0.0000000       0.0000000        0     0     0
     2       C          1.39791783  *    0.0000000       0.0000000        1     0     0
     3       C          1.39387375  *  118.1885915  *    0.0000000        2     1     0
     4       C          1.39831272  *  121.8526133  *    0.2733023  *     3     2     1
     5       C          1.38775735  *  118.6307557  *   -0.2573606  *     4     3     2
     6       C          1.40317929  *  121.6023876  *   -0.1291124  *     1     2     3
     7       O          1.35738415  *  115.1391444  * -179.4943637  *     3     2     1
     8       N          1.45874701  *  116.5946713  *  179.9296517  *     1     2     3
     9       O          1.22023091  *  119.2299624  *  179.9885446  *     8     1     2
    10       O          1.22117388  *  117.9059772  *    0.0001607  *     8     1     2
    11       C          1.48461660  *  122.9891350  *  179.9410914  *     6     1     2
    12       H          1.09557707  *  121.6925665  * -179.9886818  *     2     1     6
    13       H          1.08687211  *  120.7524147  *  179.8845949  *     4     3     2
    14       H          1.09143774  *  119.3894072  * -179.8848542  *     5     4     3
    15       H          0.98824289  *  112.3085290  * -175.6570763  *     7     3     2
    16       H          1.09754067  *  113.3318092  * -179.9979005  *    11     6     1
    17       H          1.10514204  *  111.7162859  *  -59.0115954  *    11     6     1
    18       H          1.10514461  *  111.7422375  *   58.9983014  *    11     6     1

                             CARTESIAN COORDINATES

   1    C        0.000000000     0.000000000     0.000000000
   2    C        1.397917833     0.000000000     0.000000000
   3    C        2.056349327     1.228556875     0.000000000
   4    C        1.358075942     2.440027320     0.005665522
   5    C       -0.029308889     2.407875815     0.005954725
   6    C       -0.735295973     1.195091917     0.002693069
   7    O        3.411769246     1.156369668    -0.010844140
   8    N       -0.653045918    -1.304404574    -0.001601562
   9    O       -1.871986343    -1.360508934    -0.001457546
  10    O        0.056082111    -2.298588464    -0.002819205
  11    C       -2.219477187     1.231024179     0.001493727
  12    H        1.973491587    -0.932201027    -0.002284807
  13    H        1.889792686     3.387954063     0.007447305
  14    H       -0.586811770     3.346183188     0.008436828
  15    H        3.835406964     2.046484059     0.058808252
  16    H       -2.629647274     2.249036972     0.003940131
  17    H       -2.640293918     0.714920455    -0.880486522
  18    H       -2.642303633     0.709907353     0.879559585


           Empirical Formula: C7 H7 N O3  =    18 atoms



      MOLECULAR POINT GROUP   :   Cs  


                  EIGENVALUES  
 -37.13710 -31.73895 -30.78207 -30.53146 -27.63022 -27.45994 -25.16730 -23.61792
 -21.90742 -21.18413 -19.35725 -17.92117 -17.28591 -17.25736 -16.96977 -16.04223
 -15.28695 -15.21603 -14.69422 -14.49759 -13.78382 -13.31600 -12.85285 -12.60566
 -11.25735 -11.14658 -10.96936 -10.88520  -9.64982  -1.33125  -0.43959   0.47381
   0.73868   1.74876   1.82351   3.24463   3.35028   3.67125   3.85897   4.04682
   4.14864   4.37486   4.82692   5.01210   5.15602   5.16392   5.31653   5.33799
   5.37752   5.68964   6.50318


              NET ATOMIC CHARGES AND DIPOLE CONTRIBUTIONS

  ATOM NO.   TYPE          CHARGE      No. of ELECS.   s-Pop       p-Pop       
    1          C          -0.056687        4.0567     1.07823     2.97845
    2          C          -0.176939        4.1769     1.08453     3.09241
    3          C           0.245852        3.7541     1.07278     2.68137
    4          C          -0.236719        4.2367     1.08436     3.15236
    5          C          -0.135788        4.1358     1.08464     3.05115
    6          C           0.048994        3.9510     1.06790     2.88311
    7          O          -0.453308        6.4533     1.83920     4.61410
    8          N           0.623512        4.3765     1.45211     2.92438
    9          O          -0.403377        6.4034     1.94130     4.46208
   10          O          -0.393594        6.3936     1.94184     4.45176
   11          C          -0.448474        4.4485     1.04836     3.40012
   12          H           0.210451        0.7895     0.78955
   13          H           0.164034        0.8360     0.83597
   14          H           0.164118        0.8359     0.83588
   15          H           0.327985        0.6720     0.67202
   16          H           0.153837        0.8462     0.84616
   17          H           0.183068        0.8169     0.81693
   18          H           0.183035        0.8170     0.81697
 DIPOLE           X         Y         Z       TOTAL
 POINT-CHG.     0.936     5.796     0.119     5.872
 HYBRID         0.298    -0.056     0.009     0.304
 SUM            1.234     5.740     0.127     5.872


          ATOMIC ORBITAL ELECTRON POPULATIONS

     Atom    s        px        py        pz   
    1  C   1.07823   0.96875   0.89484   1.11486
    2  C   1.08453   0.98932   1.07626   1.02683
    3  C   1.07278   0.78316   0.96236   0.93585
    4  C   1.08436   1.02609   1.06148   1.06479
    5  C   1.08464   0.99746   1.05888   0.99481
    6  C   1.06790   0.98135   0.95034   0.95142
    7  O   1.83920   1.27093   1.44261   1.90056
    8  N   1.45211   0.97771   1.00357   0.94310
    9  O   1.94130   0.98834   1.92464   1.54909
   10  O   1.94184   1.59498   1.31222   1.54455
   11  C   1.04836   1.00512   1.18767   1.20733
   12  H   0.78955
   13  H   0.83597
   14  H   0.83588
   15  H   0.67202
   16  H   0.84616
   17  H   0.81693
   18  H   0.81697

 **********************
 *                    *
 * JOB ENDED NORMALLY *
 *                    *
 **********************



 TOTAL JOB TIME:             0.33 SECONDS

 == MOPAC DONE ==
