 *******************************************************************************
 ** Site#: 32691        For non-commercial use only    Version 19.179W 32BITS **
 *******************************************************************************
 ** Cite this program as: MOPAC2016, Version: 19.179W, James J. P. Stewart,   **
 ** Stewart Computational Chemistry, web: HTTP://OpenMOPAC.net. Days left: 337**
 *******************************************************************************
 **                                                                           **
 **                                MOPAC2016                                  **
 **                                                                           **
 *******************************************************************************

                              PM7 CALCULATION RESULTS

 *******************************************************************************
 *  CALCULATION DONE:                                Fri Jul 26 15:04:31 2019  *
 *  T=         - A TIME OF 172800.0 SECONDS REQUESTED
 *  DUMP=N     - RESTART FILE WRITTEN EVERY  7200.000 SECONDS
 *******************************************************************************

 4-methyl-3-nitrobenzoic acid.mop

  ATOM    CHEMICAL      BOND LENGTH      BOND ANGLE     TWIST ANGLE 
 NUMBER    SYMBOL       (ANGSTROMS)      (DEGREES)       (DEGREES) 
   (I)                     NA:I           NB:NA:I       NC:NB:NA:I       NA    NB    NC 
     1       C          0.00000000       0.0000000       0.0000000        0     0     0
     2       C          1.33847000  *    0.0000000       0.0000000        1     0     0
     3       C          1.34567000  *  122.1628220  *    0.0000000        2     1     0
     4       C          1.35516100  *  119.0200370  *   -0.0318970  *     3     2     1
     5       C          1.35393600  *  117.8527050  *   -0.0585410  *     4     3     2
     6       C          1.34226500  *  119.8915280  *    0.0809740  *     1     2     3
     7       C          1.36535000  *  119.1620790  * -179.9338690  *     6     1     2
     8       O          1.35855400  *  121.6877360  *    0.2607260  *     7     6     1
     9       O          1.21287600  *  124.8094440  * -179.9882360  *     7     6     1
    10       N          1.26098800  *  123.0945230  *  179.8839530  *     4     3     2
    11       O          1.31369500  *  123.7488680  * -179.8778140  *    10     4     3
    12       O          1.31107100  *  125.2296280  *   -0.0223760  *    10     4     3
    13       C          1.51801300  *  116.6687980  *  179.9744830  *     3     2     1
    14       H          1.10270100  *  117.8229510  * -179.9380480  *     1     2     3
    15       H          1.10331400  *  117.6352710  * -179.9654680  *     2     1     6
    16       H          1.10263700  *  119.4324990  *  179.9816350  *     5     4     3
    17       H          0.97076400  *  107.9053800  *  179.1594700  *     8     7     6
    18       H          1.11262200  *  113.0973360  *    0.0576870  *    13     3     2
    19       H          1.11352300  *  111.1374570  *  118.2491750  *    13     3     2
    20       H          1.11351600  *  111.1446560  * -118.1317290  *    13     3     2
 


          CARTESIAN COORDINATES 

    NO.       ATOM           X           Y           Z

     1         C          0.0000      0.0000      0.0000
     2         C          1.3385      0.0000      0.0000
     3         C          2.0548      1.1392      0.0000
     4         C          1.4016      2.3265     -0.0007
     5         C          0.0479      2.3037     -0.0025
     6         C         -0.6689      1.1637     -0.0016
     7         C         -2.0342      1.1463     -0.0002
     8         O         -2.7330     -0.0187      0.0080
     9         O         -2.7392      2.1333     -0.0017
    10         N          1.9953      3.4390      0.0014
    11         O          1.3753      4.5971      0.0032
    12         O          3.2962      3.6020      0.0049
    13         C          3.5658      0.9938      0.0006
    14         H         -0.5147     -0.9752      0.0011
    15         H          1.8502     -0.9774      0.0008
    16         H         -0.5101      3.2548     -0.0028
    17         H         -3.6786      0.2006      0.0210
    18         H          3.9023     -0.0667     -0.0000
    19         H          4.0130      1.4445     -0.9142
    20         H          4.0122      1.4430      0.9165

 General Reference for PM7:
 "Optimization of Parameters for Semiempirical Methods VI: More Modifications to the 
 NDDO Approximations and Re-optimization of Parameters", J. J. P. Stewart, J. Mol. Mod., 1:32, 19 (2013)
 http://www.springerlink.com/openurl.asp?genre=article&id=doi:10.1007/s00894-012-1667-x

           Empirical Formula: C8 H7 N O4  =    20 atoms



      MOLECULAR POINT GROUP   :   Cs  


      RHF CALCULATION, NO. OF DOUBLY OCCUPIED LEVELS = 34


          Geometry optimization using EF

          DIAGONAL MATRIX USED AS START HESSIAN

 CYCLE:     1 TIME:   0.047 TIME LEFT:  2.00D  GRAD.:   579.893 HEAT: -18.28981
 CYCLE:     2 TIME:   0.066 TIME LEFT:  2.00D  GRAD.:   627.932 HEAT: -24.73775
 CYCLE:     3 TIME:   0.012 TIME LEFT:  2.00D  GRAD.:   242.087 HEAT: -62.11480
 CYCLE:     4 TIME:   0.031 TIME LEFT:  2.00D  GRAD.:   473.136 HEAT: -72.05099
 CYCLE:     5 TIME:   0.035 TIME LEFT:  2.00D  GRAD.:   351.047 HEAT: -72.73549
 CYCLE:     6 TIME:   0.012 TIME LEFT:  2.00D  GRAD.:    90.034 HEAT: -77.31944
 CYCLE:     7 TIME:   0.020 TIME LEFT:  2.00D  GRAD.:    49.074 HEAT: -78.22141
 CYCLE:     8 TIME:   0.012 TIME LEFT:  2.00D  GRAD.:    22.588 HEAT: -78.48945
 CYCLE:     9 TIME:   0.047 TIME LEFT:  2.00D  GRAD.:    21.873 HEAT: -78.58770
 CYCLE:    10 TIME:   0.031 TIME LEFT:  2.00D  GRAD.:     8.816 HEAT: -78.70847
 CYCLE:    11 TIME:   0.016 TIME LEFT:  2.00D  GRAD.:     6.891 HEAT: -78.76307
 CYCLE:    12 TIME:   0.020 TIME LEFT:  2.00D  GRAD.:     1.873 HEAT: -78.76981
 CYCLE:    13 TIME:   0.027 TIME LEFT:  2.00D  GRAD.:     3.943 HEAT: -78.76658
 CYCLE:    14 TIME:   0.016 TIME LEFT:  2.00D  GRAD.:     0.846 HEAT: -78.77258

     GRADIENT =  0.84586 IS LESS THAN CUTOFF =  1.00000



 -------------------------------------------------------------------------------

 4-methyl-3-nitrobenzoic acid.mop



     GEOMETRY OPTIMISED USING EIGENVECTOR FOLLOWING (EF).     
     SCF FIELD WAS ACHIEVED                                   


                              PM7 CALCULATION
                                                       MOPAC2016 (Version: 19.179W)
                                                       Fri Jul 26 15:04:31 2019
                                                       No. of days remaining = 337




          FINAL HEAT OF FORMATION =        -78.77260 KCAL/MOL =    -329.58456 KJ/MOL


          TOTAL ENERGY            =      -2442.03146 EV
          ELECTRONIC ENERGY       =     -12177.31732 EV  POINT GROUP:     Cs  
          CORE-CORE REPULSION     =       9735.28586 EV
          COSMO AREA              =        193.53 SQUARE ANGSTROMS
          COSMO VOLUME            =        195.47 CUBIC ANGSTROMS

          GRADIENT NORM           =          0.84586 = 0.18914 PER ATOM
          IONIZATION POTENTIAL    =         10.700004 EV
          HOMO LUMO ENERGIES (EV) =        -10.700 -1.542
          NO. OF FILLED LEVELS    =         34
          MOLECULAR WEIGHT        =        181.1476

          MOLECULAR DIMENSIONS (Angstroms)

            Atom       Atom       Distance
            H    19    H    17     7.94037
            H    15    O    11     5.64271
            H    20    H    17     1.74522


          SCF CALCULATIONS        =         17
 
          WALL-CLOCK TIME         =          0.418 SECONDS
          COMPUTATION TIME        =          0.671 SECONDS




  ATOM    CHEMICAL      BOND LENGTH      BOND ANGLE     TWIST ANGLE 
 NUMBER    SYMBOL       (ANGSTROMS)      (DEGREES)       (DEGREES) 
   (I)                     NA:I           NB:NA:I       NC:NB:NA:I       NA    NB    NC 
     1       C          0.00000000       0.0000000       0.0000000        0     0     0
     2       C          1.38735440  *    0.0000000       0.0000000        1     0     0
     3       C          1.40328858  *  121.1847216  *    0.0000000        2     1     0
     4       C          1.40676463  *  118.1737965  *    0.0003393  *     3     2     1
     5       C          1.40118611  *  121.0473622  *   -0.0126250  *     4     3     2
     6       C          1.40031657  *  119.8560176  *    0.0184727  *     1     2     3
     7       C          1.46952898  *  121.3966557  * -179.9890551  *     6     1     2
     8       O          1.36106755  *  111.4142902  *    0.1686126  *     7     6     1
     9       O          1.20366938  *  128.0718899  * -179.8806812  *     7     6     1
    10       N          1.45356379  *  121.8986327  *  179.9527107  *     4     3     2
    11       O          1.22081021  *  117.7893693  * -179.9604290  *    10     4     3
    12       O          1.22046539  *  119.1550292  *    0.0287702  *    10     4     3
    13       C          1.48141658  *  118.9443655  *  179.9899462  *     3     2     1
    14       H          1.09590189  *  120.3362669  * -179.9869815  *     1     2     3
    15       H          1.09051826  *  119.5757540  * -179.9886162  *     2     1     6
    16       H          1.10315252  *  120.4619932  * -179.9792329  *     5     4     3
    17       H          0.99055435  *  113.0258992  *  179.6806567  *     8     7     6
    18       H          1.09819239  *  113.5936042  *    0.0368506  *    13     3     2
    19       H          1.10677957  *  111.8317460  *  121.2986935  *    13     3     2
    20       H          1.10679760  *  111.8320521  * -121.2315821  *    13     3     2

                             CARTESIAN COORDINATES

   1    C        0.000000000     0.000000000     0.000000000
   2    C        1.387354404     0.000000000     0.000000000
   3    C        2.113975685     1.200516697     0.000000000
   4    C        1.396997757     2.410859360     0.000007344
   5    C       -0.004153167     2.420785220    -0.000250043
   6    C       -0.697108577     1.214465300    -0.000391555
   7    C       -2.166106313     1.253975093    -0.000164679
   8    O       -2.696931255     0.000695031     0.004175405
   9    O       -2.882604325     2.221159399    -0.002423108
  10    N        2.067275600     3.700655568     0.001026433
  11    O        1.371404412     4.703721067     0.001706734
  12    O        3.287206827     3.736758896     0.001366643
  13    C        3.594259894     1.142605722     0.000227477
  14    H       -0.553511587    -0.945846624     0.000214911
  15    H        1.925605730    -0.948427950     0.000117344
  16    H       -0.556664736     3.375602657    -0.000586483
  17    H       -3.687470531    -0.000520184     0.009503049
  18    H        3.994130445     0.119800845    -0.000266841
  19    H        4.026533273     1.659762769    -0.877638876
  20    H        4.026241878     1.658901552     0.878766670


           Empirical Formula: C8 H7 N O4  =    20 atoms



      MOLECULAR POINT GROUP   :   Cs  


                  EIGENVALUES  
 -37.33089 -32.13543 -31.70064 -30.76158 -30.31348 -28.54918 -27.67589 -25.70952
 -24.90939 -22.48031 -21.87552 -20.82483 -18.92494 -17.98686 -17.60789 -17.49716
 -17.23844 -16.44435 -16.13242 -16.05821 -15.48095 -15.17350 -14.26940 -14.11364
 -13.69432 -13.54656 -13.13728 -12.48575 -11.58190 -11.44256 -11.33204 -11.16368
 -11.06352 -10.70000  -1.54202  -1.17052   0.13805   0.56096   0.78005   1.57971
   1.61904   2.64594   2.94425   3.21854   3.49123   3.63104   3.76374   3.98939
   4.25077   4.35291   4.54247   4.90854   4.94538   4.99076   5.03896   5.12231
   5.18921   5.31688   6.17162


              NET ATOMIC CHARGES AND DIPOLE CONTRIBUTIONS

  ATOM NO.   TYPE          CHARGE      No. of ELECS.   s-Pop       p-Pop       
    1          C           0.001030        3.9990     1.09760     2.90137
    2          C          -0.249634        4.2496     1.08268     3.16696
    3          C           0.176867        3.8231     1.08023     2.74290
    4          C          -0.163315        4.1633     1.07352     3.08979
    5          C           0.002616        3.9974     1.10148     2.89591
    6          C          -0.195932        4.1959     1.06103     3.13490
    7          C           0.644200        3.3558     1.10112     2.25468
    8          O          -0.562620        6.5626     1.83966     4.72296
    9          O          -0.482319        6.4823     1.87830     4.60402
   10          N           0.635865        4.3641     1.44755     2.91658
   11          O          -0.392240        6.3922     1.94187     4.45037
   12          O          -0.410499        6.4105     1.94131     4.46919
   13          C          -0.470681        4.4707     1.05090     3.41978
   14          H           0.178487        0.8215     0.82151
   15          H           0.171942        0.8281     0.82806
   16          H           0.209321        0.7907     0.79068
   17          H           0.361516        0.6385     0.63848
   18          H           0.161002        0.8390     0.83900
   19          H           0.192193        0.8078     0.80781
   20          H           0.192199        0.8078     0.80780
 DIPOLE           X         Y         Z       TOTAL
 POINT-CHG.     0.755    -5.807     0.008     5.855
 HYBRID        -0.315     0.305     0.002     0.438
 SUM            0.440    -5.501     0.010     5.519


          ATOMIC ORBITAL ELECTRON POPULATIONS

     Atom    s        px        py        pz   
    1  C   1.09760   0.99797   1.05389   0.84951
    2  C   1.08268   1.01433   1.06776   1.08487
    3  C   1.08023   0.97333   0.94725   0.82233
    4  C   1.07352   0.98070   0.90814   1.20095
    5  C   1.10148   0.97913   1.06965   0.84712
    6  C   1.06103   0.98322   1.00213   1.14955
    7  C   1.10112   0.85104   0.73505   0.66858
    8  O   1.83966   1.40578   1.44599   1.87119
    9  O   1.87830   1.64481   1.45791   1.50130
   10  N   1.44755   0.97712   0.99888   0.94058
   11  O   1.94187   1.60534   1.29830   1.54672
   12  O   1.94131   0.98785   1.92519   1.55615
   13  C   1.05090   1.01072   1.19517   1.21390
   14  H   0.82151
   15  H   0.82806
   16  H   0.79068
   17  H   0.63848
   18  H   0.83900
   19  H   0.80781
   20  H   0.80780

 **********************
 *                    *
 * JOB ENDED NORMALLY *
 *                    *
 **********************



 TOTAL JOB TIME:             0.42 SECONDS

 == MOPAC DONE ==
