 *******************************************************************************
 ** Site#: 32691        For non-commercial use only    Version 19.179W 32BITS **
 *******************************************************************************
 ** Cite this program as: MOPAC2016, Version: 19.179W, James J. P. Stewart,   **
 ** Stewart Computational Chemistry, web: HTTP://OpenMOPAC.net. Days left: 331**
 *******************************************************************************
 **                                                                           **
 **                                MOPAC2016                                  **
 **                                                                           **
 *******************************************************************************

                              PM7 CALCULATION RESULTS

 *******************************************************************************
 *  CALCULATION DONE:                                Thu Aug 01 09:57:54 2019  *
 *  T=         - A TIME OF 172800.0 SECONDS REQUESTED
 *  DUMP=N     - RESTART FILE WRITTEN EVERY  7200.000 SECONDS
 *******************************************************************************

 4-methyl-3-nitrophenol.mop

  ATOM    CHEMICAL      BOND LENGTH      BOND ANGLE     TWIST ANGLE 
 NUMBER    SYMBOL       (ANGSTROMS)      (DEGREES)       (DEGREES) 
   (I)                     NA:I           NB:NA:I       NC:NB:NA:I       NA    NB    NC 
     1       C          0.00000000       0.0000000       0.0000000        0     0     0
     2       C          1.33999800  *    0.0000000       0.0000000        1     0     0
     3       C          1.33899900  *  120.2533530  *    0.0000000        2     1     0
     4       C          1.34686600  *  122.0329600  *   -0.0200110  *     3     2     1
     5       C          1.35422900  *  118.9118740  *    0.1178420  *     4     3     2
     6       C          1.34288700  *  117.3229450  *   -0.1350200  *     1     2     3
     7       N          1.26002700  *  124.0475050  *  179.9623750  *     5     4     3
     8       O          1.31570700  *  122.8359770  * -179.5855970  *     7     5     4
     9       O          1.31145000  *  125.9314640  *   -0.0549290  *     7     5     4
    10       O          1.36051400  *  121.5375670  *  179.8076220  *     1     2     3
    11       C          1.51682400  *  117.2313740  * -179.9066910  *     4     3     2
    12       H          1.10281200  *  119.6332730  *  179.9686510  *     2     1     6
    13       H          1.10301600  *  117.6782110  * -179.9346760  *     3     2     1
    14       H          1.10365800  *  114.7491330  * -179.9738800  *     6     1     2
    15       H          0.97080900  *  109.7567460  *  178.4063320  *    10     1     2
    16       H          1.11267600  *  113.0097090  *    0.0628660  *    11     4     3
    17       H          1.11352000  *  111.0270710  *  118.4663270  *    11     4     3
    18       H          1.11350700  *  111.0427490  * -118.3659560  *    11     4     3
 


          CARTESIAN COORDINATES 

    NO.       ATOM           X           Y           Z

     1         C          0.0000      0.0000      0.0000
     2         C          1.3400      0.0000      0.0000
     3         C          2.0146      1.1566      0.0000
     4         C          1.3883      2.3490     -0.0004
     5         C          0.0343      2.3773      0.0016
     6         C         -0.6164      1.1931      0.0028
     7         N         -0.6492      3.4359      0.0022
     8         O         -1.9648      3.4356      0.0121
     9         O         -0.1745      4.6584      0.0019
    10         O         -0.7116     -1.1596     -0.0039
    11         C          2.2595      3.5907     -0.0026
    12         H          1.8853     -0.9586     -0.0017
    13         H          3.1165      1.1071     -0.0011
    14         H         -1.7189      1.1435      0.0032
    15         H         -1.6617     -0.9616      0.0222
    16         H          3.3476      3.3585     -0.0047
    17         H          2.0824      4.2014     -0.9166
    18         H          2.0860      4.2024      0.9115

 General Reference for PM7:
 "Optimization of Parameters for Semiempirical Methods VI: More Modifications to the 
 NDDO Approximations and Re-optimization of Parameters", J. J. P. Stewart, J. Mol. Mod., 1:32, 19 (2013)
 http://www.springerlink.com/openurl.asp?genre=article&id=doi:10.1007/s00894-012-1667-x

           Empirical Formula: C7 H7 N O3  =    18 atoms



      MOLECULAR POINT GROUP   :   Cs  


      RHF CALCULATION, NO. OF DOUBLY OCCUPIED LEVELS = 29


          Geometry optimization using EF

          DIAGONAL MATRIX USED AS START HESSIAN

 CYCLE:     1 TIME:   0.059 TIME LEFT:  2.00D  GRAD.:   628.856 HEAT:  18.30544
 CYCLE:     2 TIME:   0.066 TIME LEFT:  2.00D  GRAD.:   409.214 HEAT:  6.567755
 CYCLE:     3 TIME:   0.031 TIME LEFT:  2.00D  GRAD.:   252.207 HEAT: -8.795736
 CYCLE:     4 TIME:   0.027 TIME LEFT:  2.00D  GRAD.:   114.957 HEAT: -25.35312
 CYCLE:     5 TIME:   0.027 TIME LEFT:  2.00D  GRAD.:    44.536 HEAT: -33.30693
 CYCLE:     6 TIME:   0.016 TIME LEFT:  2.00D  GRAD.:    50.343 HEAT: -33.48337
 CYCLE:     7 TIME:   0.016 TIME LEFT:  2.00D  GRAD.:    70.213 HEAT: -33.95763
 CYCLE:     8 TIME:   0.012 TIME LEFT:  2.00D  GRAD.:    34.179 HEAT: -34.18291
 CYCLE:     9 TIME:   0.016 TIME LEFT:  2.00D  GRAD.:     9.504 HEAT: -34.28567
 CYCLE:    10 TIME:   0.020 TIME LEFT:  2.00D  GRAD.:    12.037 HEAT: -34.29942
 CYCLE:    11 TIME:   0.016 TIME LEFT:  2.00D  GRAD.:     7.551 HEAT: -34.32587
 CYCLE:    12 TIME:   0.012 TIME LEFT:  2.00D  GRAD.:     2.534 HEAT: -34.32933
 CYCLE:    13 TIME:   0.016 TIME LEFT:  2.00D  GRAD.:     0.963 HEAT: -34.33050

     GRADIENT =  0.96322 IS LESS THAN CUTOFF =  1.00000



 -------------------------------------------------------------------------------

 4-methyl-3-nitrophenol.mop



     GEOMETRY OPTIMISED USING EIGENVECTOR FOLLOWING (EF).     
     SCF FIELD WAS ACHIEVED                                   


                              PM7 CALCULATION
                                                       MOPAC2016 (Version: 19.179W)
                                                       Thu Aug 01 09:57:55 2019
                                                       No. of days remaining = 331




          FINAL HEAT OF FORMATION =        -34.33050 KCAL/MOL =    -143.63880 KJ/MOL


          TOTAL ENERGY            =      -2023.51815 EV
          ELECTRONIC ENERGY       =      -9589.05927 EV  POINT GROUP:     Cs  
          CORE-CORE REPULSION     =       7565.54113 EV
          COSMO AREA              =        171.93 SQUARE ANGSTROMS
          COSMO VOLUME            =        170.03 CUBIC ANGSTROMS

          GRADIENT NORM           =          0.96322 = 0.22703 PER ATOM
          IONIZATION POTENTIAL    =          9.677759 EV
          HOMO LUMO ENERGIES (EV) =         -9.678 -1.328
          NO. OF FILLED LEVELS    =         29
          MOLECULAR WEIGHT        =        153.1372

          MOLECULAR DIMENSIONS (Angstroms)

            Atom       Atom       Distance
            H    16    H    15     6.72930
            H    12    O     8     5.96458
            H    18    H    17     1.75971


          SCF CALCULATIONS        =         17
 
          WALL-CLOCK TIME         =          0.371 SECONDS
          COMPUTATION TIME        =          0.562 SECONDS




  ATOM    CHEMICAL      BOND LENGTH      BOND ANGLE     TWIST ANGLE 
 NUMBER    SYMBOL       (ANGSTROMS)      (DEGREES)       (DEGREES) 
   (I)                     NA:I           NB:NA:I       NC:NB:NA:I       NA    NB    NC 
     1       C          0.00000000       0.0000000       0.0000000        0     0     0
     2       C          1.40527968  *    0.0000000       0.0000000        1     0     0
     3       C          1.38225014  *  118.5952926  *    0.0000000        2     1     0
     4       C          1.40872170  *  121.6108426  *   -0.0238686  *     3     2     1
     5       C          1.39858439  *  118.1591577  *    0.0469509  *     4     3     2
     6       C          1.38749312  *  121.7707343  *   -0.0291795  *     1     2     3
     7       N          1.45764324  *  121.9321190  *  179.9626885  *     5     4     3
     8       O          1.22228285  *  117.8345275  * -179.8882430  *     7     5     4
     9       O          1.22010933  *  119.3166864  *    0.1065979  *     7     5     4
    10       O          1.35644098  *  115.1161698  *  179.9358114  *     1     2     3
    11       C          1.48420497  *  118.7498593  * -179.9717106  *     4     3     2
    12       H          1.08987561  *  119.4512289  *  179.9677739  *     2     1     6
    13       H          1.09186187  *  119.4770490  *  179.9890253  *     3     2     1
    14       H          1.09229228  *  121.3652962  * -179.9685005  *     6     1     2
    15       H          0.99044783  *  112.1470922  *  178.8906675  *    10     1     2
    16       H          1.09775030  *  113.3057376  *    0.0183462  *    11     4     3
    17       H          1.10523382  *  111.7381028  *  121.0201282  *    11     4     3
    18       H          1.10522466  *  111.7509393  * -121.0013179  *    11     4     3

                             CARTESIAN COORDINATES

   1    C        0.000000000     0.000000000     0.000000000
   2    C        1.405279683     0.000000000     0.000000000
   3    C        2.066851859     1.213646449     0.000000000
   4    C        1.366884849     2.436161384    -0.000499781
   5    C       -0.031130261     2.396264114     0.000007239
   6    C       -0.730545122     1.179593417     0.000600740
   7    N       -0.837074236     3.610833177     0.000354466
   8    O       -2.053242443     3.488752109     0.002899912
   9    O       -0.280949106     4.696829069    -0.001778992
  10    O       -0.575748117    -1.228187419    -0.001375943
  11    C        2.141413944     3.702245381    -0.001111399
  12    H        1.941152471    -0.949035932     0.000050464
  13    H        3.158584414     1.230449061     0.000182068
  14    H       -1.822809934     1.171863984     0.001109559
  15    H       -1.564710718    -1.176978114     0.016442025
  16    H        3.228075777     3.546612239    -0.001433149
  17    H        1.903657825     4.327128402    -0.881188115
  18    H        1.904176887     4.327926589     0.878526681


           Empirical Formula: C7 H7 N O3  =    18 atoms



      MOLECULAR POINT GROUP   :   Cs  


                  EIGENVALUES  
 -37.15815 -31.73913 -30.80087 -30.53599 -27.70681 -27.41182 -25.05381 -23.79539
 -21.99950 -21.03821 -19.15648 -18.28132 -17.31281 -17.21396 -16.79053 -16.22271
 -15.39411 -15.24321 -14.56842 -14.52350 -13.56769 -13.35807 -12.99990 -12.61832
 -11.29685 -11.19051 -10.99845 -10.87315  -9.67776  -1.32802  -0.47725   0.47732
   0.72249   1.74214   1.82152   3.17067   3.38338   3.74064   3.81777   3.98927
   4.15656   4.39875   4.84600   4.91788   5.10267   5.28742   5.29027   5.32137
   5.46405   5.56888   6.47777


              NET ATOMIC CHARGES AND DIPOLE CONTRIBUTIONS

  ATOM NO.   TYPE          CHARGE      No. of ELECS.   s-Pop       p-Pop       
    1          C           0.250782        3.7492     1.07322     2.67600
    2          C          -0.171017        4.1710     1.08514     3.08587
    3          C          -0.146964        4.1470     1.08601     3.06095
    4          C           0.056346        3.9437     1.06906     2.87460
    5          C          -0.051986        4.0520     1.07566     2.97632
    6          C          -0.247289        4.2473     1.08339     3.16390
    7          N           0.624271        4.3757     1.45215     2.92358
    8          O          -0.402724        6.4027     1.94194     4.46079
    9          O          -0.400433        6.4004     1.94128     4.45915
   10          O          -0.457521        6.4575     1.83979     4.61773
   11          C          -0.449768        4.4498     1.04852     3.40125
   12          H           0.179677        0.8203     0.82032
   13          H           0.166411        0.8336     0.83359
   14          H           0.195695        0.8043     0.80430
   15          H           0.332808        0.6672     0.66719
   16          H           0.155359        0.8446     0.84464
   17          H           0.183211        0.8168     0.81679
   18          H           0.183143        0.8169     0.81686
 DIPOLE           X         Y         Z       TOTAL
 POINT-CHG.     3.018    -2.805     0.027     4.120
 HYBRID        -0.761     0.087     0.003     0.766
 SUM            2.257    -2.718     0.030     3.533


          ATOMIC ORBITAL ELECTRON POPULATIONS

     Atom    s        px        py        pz   
    1  C   1.07322   0.93216   0.81348   0.93036
    2  C   1.08514   0.99885   1.07200   1.01503
    3  C   1.08601   1.09135   0.97018   0.99942
    4  C   1.06906   0.94620   0.98585   0.94255
    5  C   1.07566   0.96095   0.89641   1.11897
    6  C   1.08339   1.10650   0.97502   1.08238
    7  N   1.45215   0.98435   0.99706   0.94216
    8  O   1.94194   0.99712   1.91366   1.55001
    9  O   1.94128   1.71774   1.19472   1.54669
   10  O   1.83979   1.36672   1.34890   1.90212
   11  C   1.04852   1.13159   1.06245   1.20721
   12  H   0.82032
   13  H   0.83359
   14  H   0.80430
   15  H   0.66719
   16  H   0.84464
   17  H   0.81679
   18  H   0.81686

 **********************
 *                    *
 * JOB ENDED NORMALLY *
 *                    *
 **********************



 TOTAL JOB TIME:             0.39 SECONDS

 == MOPAC DONE ==
