 *******************************************************************************
 ** Site#: 32691        For non-commercial use only    Version 19.179W 32BITS **
 *******************************************************************************
 ** Cite this program as: MOPAC2016, Version: 19.179W, James J. P. Stewart,   **
 ** Stewart Computational Chemistry, web: HTTP://OpenMOPAC.net. Days left: 337**
 *******************************************************************************
 **                                                                           **
 **                                MOPAC2016                                  **
 **                                                                           **
 *******************************************************************************

                              PM7 CALCULATION RESULTS

 *******************************************************************************
 *  CALCULATION DONE:                                Fri Jul 26 13:47:05 2019  *
 *  T=         - A TIME OF 172800.0 SECONDS REQUESTED
 *  DUMP=N     - RESTART FILE WRITTEN EVERY  7200.000 SECONDS
 *******************************************************************************

 4-methyl-2-nitrophenol2.mop

  ATOM    CHEMICAL      BOND LENGTH      BOND ANGLE     TWIST ANGLE 
 NUMBER    SYMBOL       (ANGSTROMS)      (DEGREES)       (DEGREES) 
   (I)                     NA:I           NB:NA:I       NC:NB:NA:I       NA    NB    NC 
     1       C          0.00000000       0.0000000       0.0000000        0     0     0
     2       C          1.35409900  *    0.0000000       0.0000000        1     0     0
     3       C          1.35044400  *  118.3340640  *    0.0000000        2     1     0
     4       C          1.34415300  *  123.1313820  *    0.6397280  *     3     2     1
     5       C          1.34045700  *  117.8694590  *    0.3124040  *     4     3     2
     6       C          1.34609600  *  118.3354860  *   -1.4498450  *     1     2     3
     7       C          1.51095900  *  121.8149450  *  179.9181750  *     4     3     2
     8       O          1.36754200  *  124.1632680  * -179.5502030  *     1     2     3
     9       N          1.25933100  *  122.3843180  *  178.7405000  *     2     1     6
    10       O          1.31541000  *  123.5894500  *  179.7809030  *     9     2     1
    11       O          1.31161400  *  124.0559370  *   -0.9839830  *     9     2     1
    12       H          1.10280900  *  120.6762700  * -179.5910180  *     3     2     1
    13       H          1.10246100  *  120.1161790  *  179.5263490  *     5     4     3
    14       H          1.10370300  *  119.0653750  * -178.8897030  *     6     1     2
    15       H          1.11269500  *  113.0253590  *    0.5636740  *     7     4     3
    16       H          1.11390000  *  110.1913870  *  120.7316130  *     7     4     3
    17       H          1.11389400  *  110.2051580  * -119.6646280  *     7     4     3
    18       H          0.97185700  *  105.7440040  *  164.8475470  *     8     1     2
 


          CARTESIAN COORDINATES 

    NO.       ATOM           X           Y           Z

     1         C          0.0000      0.0000      0.0000
     2         C          1.3541      0.0000      0.0000
     3         C          1.9950      1.1887      0.0000
     4         C          1.3530      2.3695      0.0126
     5         C          0.0128      2.3539      0.0321
     6         C         -0.6389      1.1844      0.0300
     7         C          2.1005      3.6826      0.0140
     8         O         -0.7679     -1.1315      0.0089
     9         N          2.0286     -1.0635     -0.0035
    10         O          3.3437     -1.0911     -0.0078
    11         O          1.5045     -2.2657      0.0111
    12         H          3.0969      1.2337     -0.0068
    13         H         -0.5512      3.3010      0.0508
    14         H         -1.7424      1.1981      0.0490
    15         H          3.2056      3.5543     -0.0063
    16         H          1.8187      4.2864     -0.8786
    17         H          1.8490      4.2674      0.9281
    18         H         -1.6631     -0.8408      0.2511

 General Reference for PM7:
 "Optimization of Parameters for Semiempirical Methods VI: More Modifications to the 
 NDDO Approximations and Re-optimization of Parameters", J. J. P. Stewart, J. Mol. Mod., 1:32, 19 (2013)
 http://www.springerlink.com/openurl.asp?genre=article&id=doi:10.1007/s00894-012-1667-x

           Empirical Formula: C7 H7 N O3  =    18 atoms



      MOLECULAR POINT GROUP   :   C1  


      RHF CALCULATION, NO. OF DOUBLY OCCUPIED LEVELS = 29


          Geometry optimization using EF

          DIAGONAL MATRIX USED AS START HESSIAN

 CYCLE:     1 TIME:   0.016 TIME LEFT:  2.00D  GRAD.:   555.775 HEAT:  21.05744
 CYCLE:     2 TIME:   0.078 TIME LEFT:  2.00D  GRAD.:   643.542 HEAT:  18.08365
 CYCLE:     3 TIME:   0.016 TIME LEFT:  2.00D  GRAD.:   227.807 HEAT: -18.98587
 CYCLE:     4 TIME:   0.016 TIME LEFT:  2.00D  GRAD.:   423.859 HEAT: -26.77697
 CYCLE:     5 TIME:   0.016 TIME LEFT:  2.00D  GRAD.:   302.631 HEAT: -27.93999
 CYCLE:     6 TIME:   0.016 TIME LEFT:  2.00D  GRAD.:    69.343 HEAT: -30.83000
 CYCLE:     7 TIME:   0.016 TIME LEFT:  2.00D  GRAD.:    37.660 HEAT: -31.62379
 CYCLE:     8 TIME:   0.031 TIME LEFT:  2.00D  GRAD.:    19.204 HEAT: -31.72738
 CYCLE:     9 TIME:   0.031 TIME LEFT:  2.00D  GRAD.:    25.596 HEAT: -31.77756
 CYCLE:    10 TIME:   0.016 TIME LEFT:  2.00D  GRAD.:    16.337 HEAT: -31.86806
 CYCLE:    11 TIME:   0.016 TIME LEFT:  2.00D  GRAD.:    22.231 HEAT: -31.87773
 CYCLE:    12 TIME:   0.016 TIME LEFT:  2.00D  GRAD.:     4.132 HEAT: -31.97873
 CYCLE:    13 TIME:   0.016 TIME LEFT:  2.00D  GRAD.:     2.756 HEAT: -32.00197
 CYCLE:    14 TIME:   0.016 TIME LEFT:  2.00D  GRAD.:     6.194 HEAT: -32.04009
 CYCLE:    15 TIME:   0.000 TIME LEFT:  2.00D  GRAD.:     4.856 HEAT: -32.06021
 CYCLE:    16 TIME:   0.016 TIME LEFT:  2.00D  GRAD.:     5.074 HEAT: -32.11011
 CYCLE:    17 TIME:   0.016 TIME LEFT:  2.00D  GRAD.:     2.381 HEAT: -32.11823
 CYCLE:    18 TIME:   0.016 TIME LEFT:  2.00D  GRAD.:     0.624 HEAT: -32.12093

     GRADIENT =  0.62446 IS LESS THAN CUTOFF =  1.00000



 -------------------------------------------------------------------------------

 4-methyl-2-nitrophenol2.mop



     GEOMETRY OPTIMISED USING EIGENVECTOR FOLLOWING (EF).     
     SCF FIELD WAS ACHIEVED                                   


                              PM7 CALCULATION
                                                       MOPAC2016 (Version: 19.179W)
                                                       Fri Jul 26 13:47:05 2019
                                                       No. of days remaining = 337




          FINAL HEAT OF FORMATION =        -32.12093 KCAL/MOL =    -134.39398 KJ/MOL


          TOTAL ENERGY            =      -2023.42462 EV
          ELECTRONIC ENERGY       =      -9593.08982 EV  POINT GROUP:     Cs  
          CORE-CORE REPULSION     =       7569.66521 EV
          COSMO AREA              =        173.52 SQUARE ANGSTROMS
          COSMO VOLUME            =        169.82 CUBIC ANGSTROMS

          GRADIENT NORM           =          0.62446 = 0.14719 PER ATOM
          IONIZATION POTENTIAL    =          9.682989 EV
          HOMO LUMO ENERGIES (EV) =         -9.683 -1.170
          NO. OF FILLED LEVELS    =         29
          MOLECULAR WEIGHT        =        153.1372

          MOLECULAR DIMENSIONS (Angstroms)

            Atom       Atom       Distance
            H    18    H    15     6.73343
            H    13    O    10     5.96399
            H    17    H    16     1.77161


          SCF CALCULATIONS        =         20
 
          WALL-CLOCK TIME         =          0.406 SECONDS
          COMPUTATION TIME        =          0.624 SECONDS




  ATOM    CHEMICAL      BOND LENGTH      BOND ANGLE     TWIST ANGLE 
 NUMBER    SYMBOL       (ANGSTROMS)      (DEGREES)       (DEGREES) 
   (I)                     NA:I           NB:NA:I       NC:NB:NA:I       NA    NB    NC 
     1       C          0.00000000       0.0000000       0.0000000        0     0     0
     2       C          1.40462755  *    0.0000000       0.0000000        1     0     0
     3       C          1.40355541  *  118.9877335  *    0.0000000        2     1     0
     4       C          1.38897574  *  120.6210229  *    0.3793801  *     3     2     1
     5       C          1.40389401  *  119.6476707  *   -0.0754669  *     4     3     2
     6       C          1.40335466  *  120.5995161  *   -0.4929206  *     1     2     3
     7       C          1.48940356  *  120.7244831  *  179.9173208  *     4     3     2
     8       O          1.34561265  *  117.4606895  *  179.5591725  *     1     2     3
     9       N          1.44771904  *  122.5283406  *  179.5280777  *     2     1     6
    10       O          1.22552906  *  117.1178897  *  179.5324051  *     9     2     1
    11       O          1.21584139  *  119.7269146  *   -0.5496487  *     9     2     1
    12       H          1.09779612  *  119.0017438  * -179.6748264  *     3     2     1
    13       H          1.09159900  *  119.4754931  *  179.9169178  *     5     4     3
    14       H          1.08646407  *  120.1288742  * -179.7480544  *     6     1     2
    15       H          1.09969039  *  112.7569395  *    0.4980312  *     7     4     3
    16       H          1.10030172  *  111.5265120  *  120.5658825  *     7     4     3
    17       H          1.10035236  *  111.5158158  * -119.5760006  *     7     4     3
    18       H          0.99518373  *  112.2137986  *  179.6799123  *     8     1     2

                             CARTESIAN COORDINATES

   1    C        0.000000000     0.000000000     0.000000000
   2    C        1.404627551     0.000000000     0.000000000
   3    C        2.084821885     1.227722870     0.000000000
   4    C        1.382159278     2.425828138     0.007914475
   5    C       -0.021601526     2.407601939     0.014379494
   6    C       -0.714355441     1.207887664     0.010391819
   7    C        2.101613450     3.729939015     0.009779810
   8    O       -0.620515722    -1.193963674    -0.009186408
   9    N        2.183090279    -1.220608867    -0.000447340
  10    O        3.403128715    -1.105070127    -0.009307053
  11    O        1.617116530    -2.296642903     0.009286965
  12    H        3.182604449     1.227998805    -0.005449089
  13    H       -0.570987079     3.350844358     0.021970700
  14    H       -1.800775035     1.198932683     0.014446958
  15    H        3.194934997     3.612619231    -0.004468650
  16    H        1.836883941     4.338340706    -0.867961353
  17    H        1.858202797     4.323848595     0.903534804
  18    H       -1.611516768    -1.103005451    -0.003339411


           Empirical Formula: C7 H7 N O3  =    18 atoms



      MOLECULAR POINT GROUP   :   Cs  


                  EIGENVALUES  
 -36.88308 -31.82128 -31.03527 -30.13581 -27.86168 -27.20197 -24.75919 -24.05118
 -22.08095 -20.77824 -19.06657 -18.03116 -17.73322 -17.04985 -16.63198 -15.81086
 -15.50931 -15.34529 -14.66557 -14.59229 -13.57432 -13.28392 -12.85387 -12.62652
 -10.95935 -10.90350 -10.85640 -10.73898  -9.68299  -1.16978  -0.43496   0.66751
   0.95927   1.76970   1.79318   3.00561   3.33230   3.62886   3.97561   4.07946
   4.34494   4.70143   4.75939   5.00366   5.13374   5.13574   5.25333   5.34790
   5.36628   5.56698   6.32363


              NET ATOMIC CHARGES AND DIPOLE CONTRIBUTIONS

  ATOM NO.   TYPE          CHARGE      No. of ELECS.   s-Pop       p-Pop       
    1          C           0.319222        3.6808     1.08001     2.60077
    2          C          -0.181790        4.1818     1.06495     3.11684
    3          C          -0.056267        4.0563     1.09494     2.96132
    4          C          -0.047520        4.0475     1.05923     2.98829
    5          C          -0.051487        4.0515     1.09178     2.95970
    6          C          -0.318669        4.3187     1.07668     3.24199
    7          C          -0.441957        4.4420     1.04742     3.39454
    8          O          -0.395416        6.3954     1.84212     4.55330
    9          N           0.645476        4.3545     1.44248     2.91205
   10          O          -0.433182        6.4332     1.94241     4.49077
   11          O          -0.360988        6.3610     1.94099     4.42000
   12          H           0.190639        0.8094     0.80936
   13          H           0.156751        0.8432     0.84325
   14          H           0.169072        0.8309     0.83093
   15          H           0.161761        0.8382     0.83824
   16          H           0.159504        0.8405     0.84050
   17          H           0.159697        0.8403     0.84030
   18          H           0.325155        0.6748     0.67484
 DIPOLE           X         Y         Z       TOTAL
 POINT-CHG.    -3.586     5.863     0.020     6.872
 HYBRID        -0.345    -0.575    -0.001     0.670
 SUM           -3.931     5.288     0.019     6.589


          ATOMIC ORBITAL ELECTRON POPULATIONS

     Atom    s        px        py        pz   
    1  C   1.08001   0.91290   0.82972   0.85815
    2  C   1.06495   0.95481   0.93061   1.23142
    3  C   1.09494   1.09738   0.95248   0.91146
    4  C   1.05923   0.97077   0.97577   1.04175
    5  C   1.09178   1.00566   1.04889   0.90515
    6  C   1.07668   1.09598   0.99239   1.15362
    7  C   1.04742   1.15264   1.06139   1.18051
    8  O   1.84212   1.34684   1.33683   1.86963
    9  N   1.44248   0.97857   0.99104   0.94244
   10  O   1.94241   0.99727   1.91711   1.57638
   11  O   1.94099   1.70360   1.18843   1.52796
   12  H   0.80936
   13  H   0.84325
   14  H   0.83093
   15  H   0.83824
   16  H   0.84050
   17  H   0.84030
   18  H   0.67484

 **********************
 *                    *
 * JOB ENDED NORMALLY *
 *                    *
 **********************



 TOTAL JOB TIME:             0.41 SECONDS

 == MOPAC DONE ==
