 *******************************************************************************
 ** Site#: 32691        For non-commercial use only    Version 19.179W 32BITS **
 *******************************************************************************
 ** Cite this program as: MOPAC2016, Version: 19.179W, James J. P. Stewart,   **
 ** Stewart Computational Chemistry, web: HTTP://OpenMOPAC.net. Days left: 337**
 *******************************************************************************
 **                                                                           **
 **                                MOPAC2016                                  **
 **                                                                           **
 *******************************************************************************

                              PM7 CALCULATION RESULTS

 *******************************************************************************
 *  CALCULATION DONE:                                Fri Jul 26 15:04:34 2019  *
 *  T=         - A TIME OF 172800.0 SECONDS REQUESTED
 *  DUMP=N     - RESTART FILE WRITTEN EVERY  7200.000 SECONDS
 *******************************************************************************

 4-methyl-3-nitrobenzoic acid2.mop

  ATOM    CHEMICAL      BOND LENGTH      BOND ANGLE     TWIST ANGLE 
 NUMBER    SYMBOL       (ANGSTROMS)      (DEGREES)       (DEGREES) 
   (I)                     NA:I           NB:NA:I       NC:NB:NA:I       NA    NB    NC 
     1       C          0.00000000       0.0000000       0.0000000        0     0     0
     2       C          1.35264700  *    0.0000000       0.0000000        1     0     0
     3       C          1.35347100  *  117.8227770  *    0.0000000        2     1     0
     4       C          1.34641200  *  118.8440130  *    0.2097810  *     3     2     1
     5       C          1.33992800  *  122.3489500  *    0.0531310  *     4     3     2
     6       C          1.34422800  *  123.4462550  *   -0.3445170  *     1     2     3
     7       C          1.36520800  *  120.4904660  * -179.6176770  *     6     1     2
     8       O          1.35754000  *  123.1896730  *   -0.3019170  *     7     6     1
     9       N          1.26021000  *  118.2414410  *  179.5801870  *     2     1     6
    10       O          1.31023800  *  126.3611830  * -179.8358550  *     9     2     1
    11       O          1.21240500  *  122.2982340  *  179.0784470  *     7     6     1
    12       O          1.31476400  *  121.6054760  *   -0.2567160  *     9     2     1
    13       C          1.51676900  *  123.8212110  * -179.8371460  *     3     2     1
    14       H          1.10241600  *  119.8641240  *  179.9257110  *     1     2     3
    15       H          1.10332400  *  119.9860160  *  179.9242500  *     4     3     2
    16       H          1.10255100  *  117.9222560  *  179.8446840  *     5     4     3
    17       H          0.97110400  *  106.8828360  *  175.6726790  *     8     7     6
    18       H          1.11351600  *  111.0289090  *   61.2096240  *    13     3     2
    19       H          1.11266500  *  113.0204700  *  179.6121920  *    13     3     2
    20       H          1.11351800  *  111.0227390  *  -61.9131850  *    13     3     2
 


          CARTESIAN COORDINATES 

    NO.       ATOM           X           Y           Z

     1         C          0.0000      0.0000      0.0000
     2         C          1.3526      0.0000      0.0000
     3         C          1.9844      1.1970      0.0000
     4         C          1.2445      2.3219      0.0043
     5         C         -0.0952      2.2989      0.0097
     6         C         -0.7409      1.1216      0.0067
     7         C         -2.1042      1.0512      0.0142
     8         O         -2.7878     -0.1217      0.0093
     9         N          1.9490     -1.1102      0.0015
    10         O          3.2461     -1.2953      0.0047
    11         O         -2.8040      2.0410      0.0369
    12         O          1.2886     -2.2470      0.0080
    13         C          3.4928      1.3555     -0.0036
    14         H         -0.5489     -0.9560     -0.0012
    15         H          1.7399      3.3078      0.0057
    16         H         -0.6281      3.2641      0.0156
    17         H         -3.7300      0.1007      0.0866
    18         H          3.9402      0.9007     -0.9162
    19         H          3.8185      2.4194     -0.0099
    20         H          3.9435      0.9094      0.9117

 General Reference for PM7:
 "Optimization of Parameters for Semiempirical Methods VI: More Modifications to the 
 NDDO Approximations and Re-optimization of Parameters", J. J. P. Stewart, J. Mol. Mod., 1:32, 19 (2013)
 http://www.springerlink.com/openurl.asp?genre=article&id=doi:10.1007/s00894-012-1667-x

           Empirical Formula: C8 H7 N O4  =    20 atoms



      MOLECULAR POINT GROUP   :   Cs  


      RHF CALCULATION, NO. OF DOUBLY OCCUPIED LEVELS = 34


          Geometry optimization using EF

          DIAGONAL MATRIX USED AS START HESSIAN

 CYCLE:     1 TIME:   0.031 TIME LEFT:  2.00D  GRAD.:   640.162 HEAT: -17.52116
 CYCLE:     2 TIME:   0.062 TIME LEFT:  2.00D  GRAD.:   622.569 HEAT: -22.25919
 CYCLE:     3 TIME:   0.016 TIME LEFT:  2.00D  GRAD.:   301.801 HEAT: -60.37165
 CYCLE:     4 TIME:   0.031 TIME LEFT:  2.00D  GRAD.:   928.265 HEAT: -62.89986
 CYCLE:     5 TIME:   0.016 TIME LEFT:  2.00D  GRAD.:   315.063 HEAT: -72.28815
 CYCLE:     6 TIME:   0.031 TIME LEFT:  2.00D  GRAD.:   159.877 HEAT: -75.38802
 CYCLE:     7 TIME:   0.016 TIME LEFT:  2.00D  GRAD.:    54.422 HEAT: -77.73274
 CYCLE:     8 TIME:   0.031 TIME LEFT:  2.00D  GRAD.:    44.124 HEAT: -78.35337
 CYCLE:     9 TIME:   0.031 TIME LEFT:  2.00D  GRAD.:    15.348 HEAT: -78.72635
 CYCLE:    10 TIME:   0.031 TIME LEFT:  2.00D  GRAD.:    12.372 HEAT: -78.85157
 CYCLE:    11 TIME:   0.016 TIME LEFT:  2.00D  GRAD.:    11.345 HEAT: -78.98960
 CYCLE:    12 TIME:   0.016 TIME LEFT:  2.00D  GRAD.:     4.315 HEAT: -79.07971
 CYCLE:    13 TIME:   0.016 TIME LEFT:  2.00D  GRAD.:     1.447 HEAT: -79.08618
 CYCLE:    14 TIME:   0.016 TIME LEFT:  2.00D  GRAD.:     1.561 HEAT: -79.08879
 CYCLE:    15 TIME:   0.031 TIME LEFT:  2.00D  GRAD.:     1.184 HEAT: -79.09232
 CYCLE:    16 TIME:   0.016 TIME LEFT:  2.00D  GRAD.:     0.729 HEAT: -79.09422

     GRADIENT =  0.72906 IS LESS THAN CUTOFF =  1.00000



 -------------------------------------------------------------------------------

 4-methyl-3-nitrobenzoic acid2.mop



     GEOMETRY OPTIMISED USING EIGENVECTOR FOLLOWING (EF).     
     SCF FIELD WAS ACHIEVED                                   


                              PM7 CALCULATION
                                                       MOPAC2016 (Version: 19.179W)
                                                       Fri Jul 26 15:04:35 2019
                                                       No. of days remaining = 337




          FINAL HEAT OF FORMATION =        -79.09422 KCAL/MOL =    -330.93021 KJ/MOL


          TOTAL ENERGY            =      -2442.04465 EV
          ELECTRONIC ENERGY       =     -12192.38183 EV  POINT GROUP:     Cs  
          CORE-CORE REPULSION     =       9750.33718 EV
          COSMO AREA              =        193.33 SQUARE ANGSTROMS
          COSMO VOLUME            =        194.95 CUBIC ANGSTROMS

          GRADIENT NORM           =          0.72906 = 0.16302 PER ATOM
          IONIZATION POTENTIAL    =         10.704785 EV
          HOMO LUMO ENERGIES (EV) =        -10.705 -1.554
          NO. OF FILLED LEVELS    =         34
          MOLECULAR WEIGHT        =        181.1476

          MOLECULAR DIMENSIONS (Angstroms)

            Atom       Atom       Distance
            H    19    H    17     8.02422
            H    16    O    12     5.96185
            H    18    H    20     1.75690


          SCF CALCULATIONS        =         20
 
          WALL-CLOCK TIME         =          0.406 SECONDS
          COMPUTATION TIME        =          0.733 SECONDS




  ATOM    CHEMICAL      BOND LENGTH      BOND ANGLE     TWIST ANGLE 
 NUMBER    SYMBOL       (ANGSTROMS)      (DEGREES)       (DEGREES) 
   (I)                     NA:I           NB:NA:I       NC:NB:NA:I       NA    NB    NC 
     1       C          0.00000000       0.0000000       0.0000000        0     0     0
     2       C          1.40211799  *    0.0000000       0.0000000        1     0     0
     3       C          1.40671705  *  121.0323490  *    0.0000000        2     1     0
     4       C          1.40322518  *  118.2083959  *    0.0925232  *     3     2     1
     5       C          1.38662109  *  121.1352541  *   -0.0233223  *     4     3     2
     6       C          1.38962473  *  119.4640085  *   -0.1052124  *     1     2     3
     7       C          1.46964116  *  121.7125189  * -179.9095800  *     6     1     2
     8       O          1.35799638  *  111.5447757  *   -0.5108738  *     7     6     1
     9       N          1.45289462  *  117.0403668  *  179.8926001  *     2     1     6
    10       O          1.22036432  *  119.2246168  *  179.9659686  *     9     2     1
    11       O          1.20464178  *  127.6892773  *  179.3955408  *     7     6     1
    12       O          1.22107652  *  117.7709774  *   -0.0621091  *     9     2     1
    13       C          1.48168779  *  122.8710177  * -179.8693052  *     3     2     1
    14       H          1.10281641  *  120.1562396  *  179.9040424  *     1     2     3
    15       H          1.09094825  *  119.2978248  *  179.9779184  *     4     3     2
    16       H          1.09633326  *  120.5507275  *  179.9636483  *     5     4     3
    17       H          0.99064069  *  113.3437995  *  179.2872837  *     8     7     6
    18       H          1.10651541  *  111.7819644  *   58.4838662  *    13     3     2
    19       H          1.09835055  *  113.5521219  *  179.7313801  *    13     3     2
    20       H          1.10652782  *  111.7727833  *  -59.0137173  *    13     3     2

                             CARTESIAN COORDINATES

   1    C        0.000000000     0.000000000     0.000000000
   2    C        1.402117991     0.000000000     0.000000000
   3    C        2.127311501     1.205382604     0.000000000
   4    C        1.409658758     2.411206582     0.001996856
   5    C        0.023068279     2.420305757     0.003439957
   6    C       -0.683524071     1.209895367     0.002221737
   7    C       -2.152032334     1.267552075     0.004300618
   8    O       -2.699912112     0.025037664    -0.007526061
   9    N        2.062630229    -1.294073551     0.000049407
  10    O        3.282107707    -1.340585553    -0.000581400
  11    O       -2.850545253     2.248926702     0.016357436
  12    O        1.358960400    -2.292009007     0.001258701
  13    C        3.608233648     1.252924694    -0.002838681
  14    H       -0.554010520    -0.953558507    -0.001596998
  15    H        1.954191854     3.356538079     0.002397018
  16    H       -0.527989540     3.368080653     0.005595040
  17    H       -3.690445743     0.032667554     0.004878912
  18    H        4.034143218     0.730285568    -0.880235816
  19    H        4.014576333     2.273336830    -0.007153407
  20    H        4.037157882     0.736293786     0.876661361


           Empirical Formula: C8 H7 N O4  =    20 atoms



      MOLECULAR POINT GROUP   :   Cs  


                  EIGENVALUES  
 -37.34333 -32.13179 -31.68891 -30.77532 -30.32924 -28.55023 -27.68518 -25.79416
 -24.78553 -22.49626 -22.02578 -20.77514 -18.64912 -18.30394 -17.51019 -17.49840
 -17.28072 -16.39825 -16.19451 -16.06313 -15.52987 -15.18276 -14.31324 -13.97593
 -13.69914 -13.47316 -13.24381 -12.46915 -11.59750 -11.46010 -11.34668 -11.17782
 -11.07194 -10.70478  -1.55368  -1.17204   0.13133   0.56089   0.77101   1.57078
   1.61429   2.56525   3.08095   3.15253   3.47066   3.70297   3.74141   3.95802
   4.21123   4.38827   4.52167   4.90109   4.94275   4.97201   5.03398   5.15779
   5.19860   5.29481   6.16736


              NET ATOMIC CHARGES AND DIPOLE CONTRIBUTIONS

  ATOM NO.   TYPE          CHARGE      No. of ELECS.   s-Pop       p-Pop       
    1          C           0.012520        3.9875     1.10081     2.88666
    2          C          -0.166873        4.1669     1.07405     3.09282
    3          C           0.177018        3.8230     1.08034     2.74264
    4          C          -0.246390        4.2464     1.08213     3.16426
    5          C          -0.007407        4.0074     1.09853     2.90887
    6          C          -0.197045        4.1970     1.06099     3.13605
    7          C           0.647132        3.3529     1.10067     2.25219
    8          O          -0.550170        6.5502     1.83879     4.71138
    9          N           0.636429        4.3636     1.44743     2.91614
   10          O          -0.409983        6.4100     1.94126     4.46872
   11          O          -0.497214        6.4972     1.87815     4.61907
   12          O          -0.395658        6.3957     1.94188     4.45378
   13          C          -0.470525        4.4705     1.05100     3.41952
   14          H           0.209353        0.7906     0.79065
   15          H           0.173260        0.8267     0.82674
   16          H           0.178716        0.8213     0.82128
   17          H           0.361467        0.6385     0.63853
   18          H           0.191936        0.8081     0.80806
   19          H           0.161560        0.8384     0.83844
   20          H           0.191873        0.8081     0.80813
 DIPOLE           X         Y         Z       TOTAL
 POINT-CHG.     0.784     3.549    -0.001     3.635
 HYBRID        -0.320    -0.427     0.002     0.533
 SUM            0.465     3.123     0.002     3.157


          ATOMIC ORBITAL ELECTRON POPULATIONS

     Atom    s        px        py        pz   
    1  C   1.10081   0.97616   1.06990   0.84060
    2  C   1.07405   0.98339   0.90715   1.20229
    3  C   1.08034   0.97325   0.94745   0.82194
    4  C   1.08213   1.01360   1.06658   1.08408
    5  C   1.09853   1.00063   1.05369   0.85455
    6  C   1.06099   0.98351   1.00213   1.15041
    7  C   1.10067   0.84958   0.73670   0.66591
    8  O   1.83879   1.40271   1.44193   1.86675
    9  N   1.44743   0.97677   0.99932   0.94005
   10  O   1.94126   0.98807   1.92502   1.55563
   11  O   1.87815   1.65912   1.45171   1.50824
   12  O   1.94188   1.59898   1.30653   1.54827
   13  C   1.05100   1.01048   1.19559   1.21346
   14  H   0.79065
   15  H   0.82674
   16  H   0.82128
   17  H   0.63853
   18  H   0.80806
   19  H   0.83844
   20  H   0.80813

 **********************
 *                    *
 * JOB ENDED NORMALLY *
 *                    *
 **********************



 TOTAL JOB TIME:             0.42 SECONDS

 == MOPAC DONE ==
