 *******************************************************************************
 ** Site#: 32691        For non-commercial use only    Version 19.179W 32BITS **
 *******************************************************************************
 ** Cite this program as: MOPAC2016, Version: 19.179W, James J. P. Stewart,   **
 ** Stewart Computational Chemistry, web: HTTP://OpenMOPAC.net. Days left: 340**
 *******************************************************************************
 **                                                                           **
 **                                MOPAC2016                                  **
 **                                                                           **
 *******************************************************************************

                              PM7 CALCULATION RESULTS

 *******************************************************************************
 *  CALCULATION DONE:                                Tue Jul 23 11:34:21 2019  *
 *  T=         - A TIME OF 172800.0 SECONDS REQUESTED
 *  DUMP=N     - RESTART FILE WRITTEN EVERY  7200.000 SECONDS
 *******************************************************************************

 4-methyl-2-nitrophenol.mop

  ATOM    CHEMICAL      BOND LENGTH      BOND ANGLE     TWIST ANGLE 
 NUMBER    SYMBOL       (ANGSTROMS)      (DEGREES)       (DEGREES) 
   (I)                     NA:I           NB:NA:I       NC:NB:NA:I       NA    NB    NC 
     1       C          0.00000000       0.0000000       0.0000000        0     0     0
     2       C          1.34372400  *    0.0000000       0.0000000        1     0     0
     3       C          1.34136800  *  117.9095320  *    0.0000000        2     1     0
     4       C          1.33947400  *  120.1344120  *    0.0187260  *     3     2     1
     5       C          1.34588900  *  122.3081410  *   -0.5987020  *     4     3     2
     6       C          1.34847800  *  122.3914290  *    0.0509640  *     1     2     3
     7       N          1.25618200  *  120.2740090  *  179.1928610  *     6     1     2
     8       O          1.31222600  *  124.5656600  *    0.2493410  *     7     6     1
     9       O          1.30948200  *  120.9266770  * -178.4984190  *     7     6     1
    10       O          1.36710200  *  118.3982810  *  178.5466240  *     5     4     3
    11       C          1.51053500  *  121.9720530  *  179.9907510  *     2     1     6
    12       H          1.10271100  *  116.9965180  *  179.8596680  *     1     2     3
    13       H          1.10257200  *  119.9783770  *  179.6288610  *     3     2     1
    14       H          1.10368700  *  118.6230300  *  179.2360600  *     4     3     2
    15       H          0.96565800  *  117.2632250  * -158.5528360  *    10     5     4
    16       H          1.11276100  *  112.8754720  *   -0.0908570  *    11     2     1
    17       H          1.11388500  *  110.2447010  *  120.0548680  *    11     2     1
    18       H          1.11387600  *  110.2594440  * -120.2355760  *    11     2     1
 


          CARTESIAN COORDINATES 

    NO.       ATOM           X           Y           Z

     1         C          0.0000      0.0000      0.0000
     2         C          1.3437      0.0000      0.0000
     3         C          1.9716      1.1854      0.0000
     4         C          1.2626      2.3218      0.0004
     5         C         -0.0832      2.3301     -0.0111
     6         C         -0.7224      1.1387     -0.0010
     7         N         -1.9776      1.0923     -0.0163
     8         O         -2.6816     -0.0150     -0.0273
     9         O         -2.6913      2.1898     -0.0469
    10         O         -0.7262      3.5361      0.0207
    11         C          2.1436     -1.2814      0.0013
    12         H         -0.5006     -0.9826     -0.0024
    13         H          3.0734      1.2252      0.0062
    14         H          1.8047      3.2831      0.0133
    15         H         -1.6420      3.5412      0.3269
    16         H          1.5029     -2.1912      0.0039
    17         H          2.7917     -1.3322     -0.9032
    18         H          2.7942     -1.3290      0.9042

 General Reference for PM7:
 "Optimization of Parameters for Semiempirical Methods VI: More Modifications to the 
 NDDO Approximations and Re-optimization of Parameters", J. J. P. Stewart, J. Mol. Mod., 1:32, 19 (2013)
 http://www.springerlink.com/openurl.asp?genre=article&id=doi:10.1007/s00894-012-1667-x

           Empirical Formula: C7 H7 N O3  =    18 atoms



      MOLECULAR POINT GROUP   :   C1  


      RHF CALCULATION, NO. OF DOUBLY OCCUPIED LEVELS = 29


          Geometry optimization using EF

          DIAGONAL MATRIX USED AS START HESSIAN

 CYCLE:     1 TIME:   0.031 TIME LEFT:  2.00D  GRAD.:   819.686 HEAT:  13.58236
 CYCLE:     2 TIME:   0.078 TIME LEFT:  2.00D  GRAD.:   422.921 HEAT: 0.5908604
 CYCLE:     3 TIME:   0.016 TIME LEFT:  2.00D  GRAD.:   274.550 HEAT: -15.18623
 CYCLE:     4 TIME:   0.016 TIME LEFT:  2.00D  GRAD.:   155.004 HEAT: -31.48125
 CYCLE:     5 TIME:   0.016 TIME LEFT:  2.00D  GRAD.:    87.347 HEAT: -37.09157
 CYCLE:     6 TIME:   0.031 TIME LEFT:  2.00D  GRAD.:    83.934 HEAT: -37.88054
 CYCLE:     7 TIME:   0.016 TIME LEFT:  2.00D  GRAD.:    57.222 HEAT: -38.93035
 CYCLE:     8 TIME:   0.031 TIME LEFT:  2.00D  GRAD.:    42.287 HEAT: -39.03007
 CYCLE:     9 TIME:   0.000 TIME LEFT:  2.00D  GRAD.:    55.304 HEAT: -39.45679
 CYCLE:    10 TIME:   0.016 TIME LEFT:  2.00D  GRAD.:    17.024 HEAT: -39.91834
 CYCLE:    11 TIME:   0.016 TIME LEFT:  2.00D  GRAD.:     7.630 HEAT: -40.02336
 CYCLE:    12 TIME:   0.016 TIME LEFT:  2.00D  GRAD.:     7.484 HEAT: -40.11401
 CYCLE:    13 TIME:   0.016 TIME LEFT:  2.00D  GRAD.:     6.506 HEAT: -40.15452
 CYCLE:    14 TIME:   0.016 TIME LEFT:  2.00D  GRAD.:     5.233 HEAT: -40.19225
 CYCLE:    15 TIME:   0.000 TIME LEFT:  2.00D  GRAD.:     2.433 HEAT: -40.19723
 CYCLE:    16 TIME:   0.016 TIME LEFT:  2.00D  GRAD.:     2.077 HEAT: -40.20004
 CYCLE:    17 TIME:   0.016 TIME LEFT:  2.00D  GRAD.:     0.544 HEAT: -40.20120

     GRADIENT =  0.54450 IS LESS THAN CUTOFF =  1.00000



 -------------------------------------------------------------------------------

 4-methyl-2-nitrophenol.mop



     GEOMETRY OPTIMISED USING EIGENVECTOR FOLLOWING (EF).     
     SCF FIELD WAS ACHIEVED                                   


                              PM7 CALCULATION
                                                       MOPAC2016 (Version: 19.179W)
                                                       Tue Jul 23 11:34:21 2019
                                                       No. of days remaining = 340




          FINAL HEAT OF FORMATION =        -40.20121 KCAL/MOL =    -168.20187 KJ/MOL


          TOTAL ENERGY            =      -2023.68833 EV
          ELECTRONIC ENERGY       =      -9611.94989 EV  POINT GROUP:     Cs  
          CORE-CORE REPULSION     =       7588.26155 EV
          COSMO AREA              =        172.38 SQUARE ANGSTROMS
          COSMO VOLUME            =        169.00 CUBIC ANGSTROMS

          GRADIENT NORM           =          0.54450 = 0.12834 PER ATOM
          IONIZATION POTENTIAL    =          9.669131 EV
          HOMO LUMO ENERGIES (EV) =         -9.669 -1.383
          NO. OF FILLED LEVELS    =         29
          MOLECULAR WEIGHT        =        153.1372

          MOLECULAR DIMENSIONS (Angstroms)

            Atom       Atom       Distance
            H    17    O     9     6.68948
            H    14    O     8     5.29098
            H    15    H    18     1.85087


          SCF CALCULATIONS        =         21
 
          WALL-CLOCK TIME         =          0.375 SECONDS
          COMPUTATION TIME        =          0.624 SECONDS




  ATOM    CHEMICAL      BOND LENGTH      BOND ANGLE     TWIST ANGLE 
 NUMBER    SYMBOL       (ANGSTROMS)      (DEGREES)       (DEGREES) 
   (I)                     NA:I           NB:NA:I       NC:NB:NA:I       NA    NB    NC 
     1       C          0.00000000       0.0000000       0.0000000        0     0     0
     2       C          1.38177444  *    0.0000000       0.0000000        1     0     0
     3       C          1.41245633  *  119.7491120  *    0.0000000        2     1     0
     4       C          1.37817871  *  121.0043731  *   -0.2062819  *     3     2     1
     5       C          1.41087758  *  119.3402241  *    0.1728588  *     4     3     2
     6       C          1.41032670  *  120.3339013  *    0.1408595  *     1     2     3
     7       N          1.43368006  *  118.9314178  *  179.7696371  *     6     1     2
     8       O          1.21593354  *  119.4896664  *   -1.9352034  *     7     6     1
     9       O          1.23663575  *  118.3908511  *  178.2187802  *     7     6     1
    10       O          1.33423071  *  115.6045455  * -179.9755338  *     5     4     3
    11       C          1.48922432  *  121.0241270  * -179.9051513  *     2     1     6
    12       H          1.09569243  *  120.7218849  * -179.8891141  *     1     2     3
    13       H          1.09205036  *  118.9828858  *  179.8478282  *     3     2     1
    14       H          1.08969417  *  121.9378602  * -179.9412170  *     4     3     2
    15       H          1.02037753  *  111.2834874  * -179.7224925  *    10     5     4
    16       H          1.09925772  *  112.8558302  *   -0.1031915  *    11     2     1
    17       H          1.10055405  *  111.4903270  *  119.9715583  *    11     2     1
    18       H          1.10048020  *  111.5304118  * -120.2263002  *    11     2     1

                             CARTESIAN COORDINATES

   1    C        0.000000000     0.000000000     0.000000000
   2    C        1.381774437     0.000000000     0.000000000
   3    C        2.082639576     1.226303776     0.000000000
   4    C        1.409311976     2.428796354    -0.004252935
   5    C       -0.001563538     2.431109314    -0.004956637
   6    C       -0.712269138     1.217244893    -0.002992555
   7    N       -2.145510954     1.182147667    -0.007951132
   8    O       -2.717873663     0.109997344    -0.045220238
   9    O       -2.760066435     2.254814718     0.023272780
  10    O       -0.576185515     3.635251691    -0.009680037
  11    C        2.149319131    -1.276190883     0.001024830
  12    H       -0.559757831    -0.941918126     0.001822919
  13    H        3.174589355     1.211701707     0.002537143
  14    H        1.934539178     3.383557451    -0.005265588
  15    H       -1.593779516     3.560061559    -0.005299110
  16    H        1.501331232    -2.164150783     0.003562250
  17    H        2.795518127    -1.358741378    -0.886010392
  18    H        2.799097505    -1.355970230     0.885603824


           Empirical Formula: C7 H7 N O3  =    18 atoms



      MOLECULAR POINT GROUP   :   Cs  


                  EIGENVALUES  
 -37.35489 -31.82948 -31.13147 -30.24897 -27.92512 -27.41146 -25.03915 -24.05607
 -22.06032 -21.12739 -19.05155 -18.38451 -17.69273 -17.48678 -16.93825 -15.85391
 -15.40762 -15.32751 -14.71288 -14.62652 -13.75078 -13.38618 -12.77404 -12.63974
 -11.59766 -11.50665 -11.32590 -10.94184  -9.66913  -1.38316  -0.37339   0.28365
   0.58323   1.70963   1.88683   2.85513   3.32831   3.56640   3.92836   4.00779
   4.21810   4.49802   4.74587   4.87703   5.09841   5.11110   5.21269   5.36322
   5.38998   5.66174   6.30144


              NET ATOMIC CHARGES AND DIPOLE CONTRIBUTIONS

  ATOM NO.   TYPE          CHARGE      No. of ELECS.   s-Pop       p-Pop       
    1          C          -0.054912        4.0549     1.09085     2.96406
    2          C          -0.050730        4.0507     1.05851     2.99222
    3          C          -0.049507        4.0495     1.09464     2.95487
    4          C          -0.266586        4.2666     1.07691     3.18967
    5          C           0.366012        3.6340     1.08211     2.55188
    6          C          -0.263692        4.2637     1.06247     3.20122
    7          N           0.661974        4.3380     1.44179     2.89624
    8          O          -0.364179        6.3642     1.94073     4.42345
    9          O          -0.475539        6.4755     1.94167     4.53387
   10          O          -0.447613        6.4476     1.84328     4.60433
   11          C          -0.441669        4.4417     1.04728     3.39439
   12          H           0.183737        0.8163     0.81626
   13          H           0.158549        0.8415     0.84145
   14          H           0.187118        0.8129     0.81288
   15          H           0.377353        0.6226     0.62265
   16          H           0.159991        0.8400     0.84001
   17          H           0.159897        0.8401     0.84010
   18          H           0.159796        0.8402     0.84020
 DIPOLE           X         Y         Z       TOTAL
 POINT-CHG.     5.401    -1.524     0.011     5.612
 HYBRID        -0.922     0.286    -0.001     0.965
 SUM            4.480    -1.238     0.010     4.647


          ATOMIC ORBITAL ELECTRON POPULATIONS

     Atom    s        px        py        pz   
    1  C   1.09085   1.00326   1.03784   0.92295
    2  C   1.05851   0.97027   0.97524   1.04671
    3  C   1.09464   1.08521   0.97368   0.89598
    4  C   1.07691   0.99315   1.08129   1.11523
    5  C   1.08211   0.93002   0.80486   0.81700
    6  C   1.06247   0.87493   1.02572   1.30057
    7  N   1.44179   1.00049   0.96732   0.92843
    8  O   1.94073   1.72558   1.17161   1.52626
    9  O   1.94167   1.69602   1.22085   1.61699
   10  O   1.84328   1.42041   1.33703   1.84689
   11  C   1.04728   1.14830   1.06525   1.18084
   12  H   0.81626
   13  H   0.84145
   14  H   0.81288
   15  H   0.62265
   16  H   0.84001
   17  H   0.84010
   18  H   0.84020

 **********************
 *                    *
 * JOB ENDED NORMALLY *
 *                    *
 **********************



 TOTAL JOB TIME:             0.38 SECONDS

 == MOPAC DONE ==
