 *******************************************************************************
 ** Site#: 32691        For non-commercial use only    Version 19.179W 32BITS **
 *******************************************************************************
 ** Cite this program as: MOPAC2016, Version: 19.179W, James J. P. Stewart,   **
 ** Stewart Computational Chemistry, web: HTTP://OpenMOPAC.net. Days left: 339**
 *******************************************************************************
 **                                                                           **
 **                                MOPAC2016                                  **
 **                                                                           **
 *******************************************************************************

                              PM7 CALCULATION RESULTS

 *******************************************************************************
 *  CALCULATION DONE:                                Wed Jul 24 15:56:53 2019  *
 *  T=         - A TIME OF 172800.0 SECONDS REQUESTED
 *  DUMP=N     - RESTART FILE WRITTEN EVERY  7200.000 SECONDS
 *******************************************************************************

 4-nitrobenzaldehyde.mop

  ATOM    CHEMICAL      BOND LENGTH      BOND ANGLE     TWIST ANGLE 
 NUMBER    SYMBOL       (ANGSTROMS)      (DEGREES)       (DEGREES) 
   (I)                     NA:I           NB:NA:I       NC:NB:NA:I       NA    NB    NC 
     1       C          0.00000000       0.0000000       0.0000000        0     0     0
     2       C          1.34492400  *    0.0000000       0.0000000        1     0     0
     3       C          1.34363600  *  118.4141710  *    0.0000000        2     1     0
     4       C          1.34344400  *  120.3885020  *   -0.0004480  *     3     2     1
     5       C          1.34822500  *  121.7916150  *   -0.0000640  *     4     3     2
     6       C          1.34173800  *  120.7818740  *    0.0005160  *     1     2     3
     7       N          1.25746500  *  121.8590010  * -179.9995180  *     5     4     3
     8       O          1.31415400  *  123.1332870  *  179.9997300  *     7     5     4
     9       O          1.31222100  *  122.7563520  *    0.0002020  *     7     5     4
    10       C          1.35895700  *  119.9225730  * -179.9994770  *     2     1     6
    11       O          1.21108800  *  128.1228200  *  179.9996660  *    10     2     1
    12       H          1.10392600  *  121.3038020  * -179.9997730  *     1     2     3
    13       H          1.10312500  *  121.1861160  *  179.9997130  *     3     2     1
    14       H          1.10368000  *  117.1070060  * -179.9998410  *     4     3     2
    15       H          1.10369900  *  117.1318320  *  179.9997190  *     6     1     2
    16       H          1.11704900  *  114.4563490  *   -0.0001580  *    10     2     1
 


          CARTESIAN COORDINATES 

    NO.       ATOM           X           Y           Z

     1         C          0.0000      0.0000      0.0000
     2         C          1.3449      0.0000      0.0000
     3         C          1.9843      1.1818      0.0000
     4         C          1.2884      2.3309     -0.0000
     5         C         -0.0598      2.3449     -0.0000
     6         C         -0.6867      1.1527     -0.0000
     7         N         -0.7124      3.4198     -0.0000
     8         O         -2.0258      3.4626     -0.0001
     9         O         -0.1376      4.5994     -0.0001
    10         C          2.0228     -1.1778     -0.0000
    11         O          3.2215     -1.3505     -0.0000
    12         H         -0.5736     -0.9432      0.0000
    13         H          3.0861      1.2351      0.0000
    14         H          1.8683      3.2700     -0.0000
    15         H         -1.7881      1.0825     -0.0000
    16         H          1.3722     -2.0858      0.0000

 General Reference for PM7:
 "Optimization of Parameters for Semiempirical Methods VI: More Modifications to the 
 NDDO Approximations and Re-optimization of Parameters", J. J. P. Stewart, J. Mol. Mod., 1:32, 19 (2013)
 http://www.springerlink.com/openurl.asp?genre=article&id=doi:10.1007/s00894-012-1667-x

           Empirical Formula: C7 H5 N O3  =    16 atoms



      MOLECULAR POINT GROUP   :   Cs  


      RHF CALCULATION, NO. OF DOUBLY OCCUPIED LEVELS = 28


          Geometry optimization using EF

          DIAGONAL MATRIX USED AS START HESSIAN

 CYCLE:     1 TIME:   0.031 TIME LEFT:  2.00D  GRAD.:   685.927 HEAT:  52.23505
 CYCLE:     2 TIME:   0.047 TIME LEFT:  2.00D  GRAD.:   601.297 HEAT:  46.37056
 CYCLE:     3 TIME:   0.031 TIME LEFT:  2.00D  GRAD.:   326.338 HEAT:  8.426016
 CYCLE:     4 TIME:   0.047 TIME LEFT:  2.00D  GRAD.:   744.083 HEAT:  4.895011
 CYCLE:     5 TIME:   0.031 TIME LEFT:  2.00D  GRAD.:   171.734 HEAT: -6.149855
 CYCLE:     6 TIME:   0.016 TIME LEFT:  2.00D  GRAD.:   108.013 HEAT: -7.004566
 CYCLE:     7 TIME:   0.016 TIME LEFT:  2.00D  GRAD.:    52.185 HEAT: -8.076154
 CYCLE:     8 TIME:   0.016 TIME LEFT:  2.00D  GRAD.:    49.934 HEAT: -8.449453
 CYCLE:     9 TIME:   0.016 TIME LEFT:  2.00D  GRAD.:     9.971 HEAT: -8.801710
 CYCLE:    10 TIME:   0.031 TIME LEFT:  2.00D  GRAD.:    10.203 HEAT: -8.838578
 CYCLE:    11 TIME:   0.016 TIME LEFT:  2.00D  GRAD.:     6.287 HEAT: -8.912406
 CYCLE:    12 TIME:   0.016 TIME LEFT:  2.00D  GRAD.:     3.142 HEAT: -8.940947
 CYCLE:    13 TIME:   0.000 TIME LEFT:  2.00D  GRAD.:     1.163 HEAT: -8.947179
 CYCLE:    14 TIME:   0.016 TIME LEFT:  2.00D  GRAD.:     0.612 HEAT: -8.948596

     GRADIENT =  0.61189 IS LESS THAN CUTOFF =  1.00000



 -------------------------------------------------------------------------------

 4-nitrobenzaldehyde.mop



     GEOMETRY OPTIMISED USING EIGENVECTOR FOLLOWING (EF).     
     SCF FIELD WAS ACHIEVED                                   


                              PM7 CALCULATION
                                                       MOPAC2016 (Version: 19.179W)
                                                       Wed Jul 24 15:56:54 2019
                                                       No. of days remaining = 339




          FINAL HEAT OF FORMATION =         -8.94860 KCAL/MOL =     -37.44093 KJ/MOL


          TOTAL ENERGY            =      -1995.77636 EV
          ELECTRONIC ENERGY       =      -8875.81379 EV  POINT GROUP:     Cs  
          CORE-CORE REPULSION     =       6880.03744 EV
          COSMO AREA              =        169.71 SQUARE ANGSTROMS
          COSMO VOLUME            =        165.41 CUBIC ANGSTROMS

          GRADIENT NORM           =          0.61189 = 0.15297 PER ATOM
          IONIZATION POTENTIAL    =         10.896103 EV
          HOMO LUMO ENERGIES (EV) =        -10.896 -1.907
          NO. OF FILLED LEVELS    =         28
          MOLECULAR WEIGHT        =        151.1214

          MOLECULAR DIMENSIONS (Angstroms)

            Atom       Atom       Distance
            O    11    O     8     7.22170
            H    14    H    12     4.86527
            H    15    H    16     0.00318


          SCF CALCULATIONS        =         18
 
          WALL-CLOCK TIME         =          0.359 SECONDS
          COMPUTATION TIME        =          0.546 SECONDS




  ATOM    CHEMICAL      BOND LENGTH      BOND ANGLE     TWIST ANGLE 
 NUMBER    SYMBOL       (ANGSTROMS)      (DEGREES)       (DEGREES) 
   (I)                     NA:I           NB:NA:I       NC:NB:NA:I       NA    NB    NC 
     1       C          0.00000000       0.0000000       0.0000000        0     0     0
     2       C          1.39629051  *    0.0000000       0.0000000        1     0     0
     3       C          1.39545837  *  120.7793234  *    0.0000000        2     1     0
     4       C          1.39261172  *  119.9489952  *    0.0186778  *     3     2     1
     5       C          1.39633771  *  118.7433282  *    0.0171511  *     4     3     2
     6       C          1.39123562  *  119.8632423  *   -0.0157336  *     1     2     3
     7       N          1.46019651  *  119.1206594  *  179.9934797  *     5     4     3
     8       O          1.21999431  *  118.0217800  * -179.9690263  *     7     5     4
     9       O          1.21952008  *  118.1071246  *    0.0253679  *     7     5     4
    10       C          1.48723624  *  119.8664192  *  179.9659770  *     2     1     6
    11       O          1.20614735  *  121.4170618  *  179.9756783  *    10     2     1
    12       H          1.09091288  *  120.4301413  *  179.9961624  *     1     2     3
    13       H          1.09547020  *  119.6144481  * -179.9925430  *     3     2     1
    14       H          1.09530564  *  120.7580221  *  179.9898594  *     4     3     2
    15       H          1.09490430  *  120.8642095  *  179.9882389  *     6     1     2
    16       H          1.09749639  *  117.5366572  *   -0.0380332  *    10     2     1

                             CARTESIAN COORDINATES

   1    C        0.000000000     0.000000000     0.000000000
   2    C        1.396290512     0.000000000     0.000000000
   3    C        2.110392409     1.198900561     0.000000000
   4    C        1.429473060     2.413691109     0.000393357
   5    C        0.033194923     2.400814893     0.001148750
   6    C       -0.692740017     1.206502258     0.000331310
   7    N       -0.689142949     3.669830865     0.001710798
   8    O       -1.908644644     3.635186935     0.002949616
   9    O       -0.038500231     4.701282656     0.001020195
  10    C        2.136903778    -1.289714490     0.000411689
  11    O        3.342609348    -1.322353642    -0.000014833
  12    H       -0.552533666    -0.940636734    -0.000063002
  13    H        3.205636209     1.176630193    -0.000123951
  14    H        1.976634086     3.362537374     0.000564985
  15    H       -1.787477215     1.225629515     0.000143640
  16    H        1.545654619    -2.214334341     0.001352829


           Empirical Formula: C7 H5 N O3  =    16 atoms



      MOLECULAR POINT GROUP   :   Cs  


                  EIGENVALUES  
 -37.47976 -32.07053 -31.50029 -30.89276 -28.10311 -27.12239 -25.64891 -22.89226
 -22.26660 -20.87345 -19.48855 -18.21895 -17.52077 -17.47644 -16.49285 -15.97619
 -15.52807 -15.29580 -15.16499 -14.16005 -14.02192 -13.09273 -11.53955 -11.49553
 -11.32586 -11.08666 -10.99012 -10.89610  -1.90655  -0.89923  -0.22867   0.43632
   0.56472   1.54181   2.57246   2.92260   3.40843   3.50430   3.76685   3.90337
   4.00442   4.31497   4.59299   4.61589   4.75180   4.80330   5.09126   5.19314
   5.29975


              NET ATOMIC CHARGES AND DIPOLE CONTRIBUTIONS

  ATOM NO.   TYPE          CHARGE      No. of ELECS.   s-Pop       p-Pop       
    1          C          -0.129664        4.1297     1.08587     3.04380
    2          C          -0.121303        4.1213     1.08707     3.03423
    3          C          -0.096615        4.0966     1.09108     3.00554
    4          C          -0.112363        4.1124     1.09199     3.02037
    5          C          -0.043314        4.0433     1.08330     2.96001
    6          C          -0.109584        4.1096     1.09016     3.01942
    7          N           0.611657        4.3883     1.45388     2.93446
    8          O          -0.390362        6.3904     1.94173     4.44864
    9          O          -0.384676        6.3847     1.94169     4.44298
   10          C           0.323944        3.6761     1.13867     2.53739
   11          O          -0.399421        6.3994     1.87954     4.51988
   12          H           0.164207        0.8358     0.83579
   13          H           0.185620        0.8144     0.81438
   14          H           0.192271        0.8077     0.80773
   15          H           0.189556        0.8104     0.81044
   16          H           0.120045        0.8800     0.87995
 DIPOLE           X         Y         Z       TOTAL
 POINT-CHG.    -0.158    -3.932    -0.001     3.936
 HYBRID        -0.081     0.474     0.000     0.481
 SUM           -0.239    -3.458    -0.001     3.466


          ATOMIC ORBITAL ELECTRON POPULATIONS

     Atom    s        px        py        pz   
    1  C   1.08587   1.00124   1.06114   0.98142
    2  C   1.08707   0.99533   1.02548   1.01342
    3  C   1.09108   1.09854   0.96408   0.94292
    4  C   1.09199   0.98708   1.07750   0.95579
    5  C   1.08330   0.97424   0.90056   1.08521
    6  C   1.09016   1.09746   0.96400   0.95797
    7  N   1.45388   0.98393   1.00322   0.94730
    8  O   1.94173   0.98299   1.92250   1.54314
    9  O   1.94169   1.64071   1.26240   1.53988
   10  C   1.13867   0.87373   0.97227   0.69139
   11  O   1.87954   1.26001   1.91832   1.34155
   12  H   0.83579
   13  H   0.81438
   14  H   0.80773
   15  H   0.81044
   16  H   0.87995

 **********************
 *                    *
 * JOB ENDED NORMALLY *
 *                    *
 **********************



 TOTAL JOB TIME:             0.36 SECONDS

 == MOPAC DONE ==
