 *******************************************************************************
 ** Site#: 32691        For non-commercial use only    Version 19.179W 32BITS **
 *******************************************************************************
 ** Cite this program as: MOPAC2016, Version: 19.179W, James J. P. Stewart,   **
 ** Stewart Computational Chemistry, web: HTTP://OpenMOPAC.net. Days left: 337**
 *******************************************************************************
 **                                                                           **
 **                                MOPAC2016                                  **
 **                                                                           **
 *******************************************************************************

                              PM7 CALCULATION RESULTS

 *******************************************************************************
 *  CALCULATION DONE:                                Fri Jul 26 14:48:44 2019  *
 *  T=         - A TIME OF 172800.0 SECONDS REQUESTED
 *  DUMP=N     - RESTART FILE WRITTEN EVERY  7200.000 SECONDS
 *******************************************************************************

 5-chloro-2-nitrobenzoic acid2.mop

  ATOM    CHEMICAL      BOND LENGTH      BOND ANGLE     TWIST ANGLE 
 NUMBER    SYMBOL       (ANGSTROMS)      (DEGREES)       (DEGREES) 
   (I)                     NA:I           NB:NA:I       NC:NB:NA:I       NA    NB    NC 
     1       C          0.00000000       0.0000000       0.0000000        0     0     0
     2       C          1.33743500  *    0.0000000       0.0000000        1     0     0
     3       C          1.33755100  *  118.2812320  *    0.0000000        2     1     0
     4       C          1.34125700  *  120.5418300  *    0.6812450  *     3     2     1
     5       C          1.35275600  *  122.5065770  *   -0.2663700  *     4     3     2
     6       C          1.34787300  *  121.4058160  *   -0.7323820  *     1     2     3
     7       N          1.26113100  *  110.7307560  *  177.2647330  *     6     1     2
     8       O          1.32395600  *  102.1451240  *  128.7645130  *     7     6     1
     9       O          1.32043400  *   99.2142990  * -131.8971870  *     7     6     1
    10       C          1.37894500  *  118.6117810  *  179.1104630  *     5     4     3
    11       O          1.36592500  *  129.6320980  * -176.9356950  *    10     5     4
    12       O          1.21140200  *  119.2526930  *    1.7084300  *    10     5     4
    13      Cl          1.72524300  *  118.8055180  *  179.8986540  *     3     2     1
    14       H          1.10548600  *  117.5400040  *  178.6145300  *     1     2     3
    15       H          1.10272500  *  120.0766100  *  179.9007000  *     2     1     6
    16       H          1.10225400  *  115.1677460  *  179.2709780  *     4     3     2
    17       H          0.97268100  *  104.2687810  * -178.8282350  *    11    10     5
 


          CARTESIAN COORDINATES 

    NO.       ATOM           X           Y           Z

     1         C          0.0000      0.0000      0.0000
     2         C          1.3374      0.0000      0.0000
     3         C          1.9712      1.1779      0.0000
     4         C          1.2769      2.3254      0.0137
     5         C         -0.0755      2.3568      0.0228
     6         C         -0.7024      1.1503      0.0147
     7         N         -1.9405      0.9181     -0.0446
     8         O         -2.4055      1.6248      0.9739
     9         O         -2.2701      1.7706     -0.9975
    10         C         -0.7073      3.5820      0.0555
    11         O         -2.0399      3.8734      0.1268
    12         O         -0.0398      4.5928      0.0437
    13        Cl          3.6963      1.1937      0.0027
    14         H         -0.5111     -0.9799     -0.0237
    15         H          1.8901     -0.9542     -0.0105
    16         H          1.8878      3.2428      0.0252
    17         H         -2.0741      4.8453      0.1084

 General Reference for PM7:
 "Optimization of Parameters for Semiempirical Methods VI: More Modifications to the 
 NDDO Approximations and Re-optimization of Parameters", J. J. P. Stewart, J. Mol. Mod., 1:32, 19 (2013)
 http://www.springerlink.com/openurl.asp?genre=article&id=doi:10.1007/s00894-012-1667-x

           Empirical Formula: C7 H4 N O4 Cl  =    17 atoms



      MOLECULAR POINT GROUP   :   Cs  


      RHF CALCULATION, NO. OF DOUBLY OCCUPIED LEVELS = 34


          Geometry optimization using EF

          DIAGONAL MATRIX USED AS START HESSIAN

 CYCLE:     1 TIME:   0.121 TIME LEFT:  2.00D  GRAD.:   807.954 HEAT:  87.57370
 CYCLE:     2 TIME:   0.125 TIME LEFT:  2.00D  GRAD.:   606.717 HEAT:  71.15574
 CYCLE:     3 TIME:   0.020 TIME LEFT:  2.00D  GRAD.:   375.268 HEAT:  28.82066
 CYCLE:     4 TIME:   0.027 TIME LEFT:  2.00D  GRAD.:  1122.640 HEAT:  7.367072
 CYCLE:     5 TIME:   0.031 TIME LEFT:  2.00D  GRAD.:   250.590 HEAT: -36.23892
 CYCLE:     6 TIME:   0.016 TIME LEFT:  2.00D  GRAD.:   221.746 HEAT: -54.97356
 CYCLE:     7 TIME:   0.016 TIME LEFT:  2.00D  GRAD.:   164.582 HEAT: -62.81088
 CYCLE:     8 TIME:   0.035 TIME LEFT:  2.00D  GRAD.:   118.969 HEAT: -65.68945
 CYCLE:     9 TIME:   0.027 TIME LEFT:  2.00D  GRAD.:    42.528 HEAT: -68.89433
 CYCLE:    10 TIME:   0.016 TIME LEFT:  2.00D  GRAD.:    22.955 HEAT: -69.30350
 CYCLE:    11 TIME:   0.031 TIME LEFT:  2.00D  GRAD.:    17.443 HEAT: -69.61013
 CYCLE:    12 TIME:   0.016 TIME LEFT:  2.00D  GRAD.:    11.335 HEAT: -69.87366
 CYCLE:    13 TIME:   0.016 TIME LEFT:  2.00D  GRAD.:     8.397 HEAT: -69.99283
 CYCLE:    14 TIME:   0.016 TIME LEFT:  2.00D  GRAD.:     4.120 HEAT: -70.00733
 CYCLE:    15 TIME:   0.016 TIME LEFT:  2.00D  GRAD.:     1.500 HEAT: -70.01170
 CYCLE:    16 TIME:   0.016 TIME LEFT:  2.00D  GRAD.:     0.904 HEAT: -70.01315

     GRADIENT =  0.90379 IS LESS THAN CUTOFF =  1.00000



 -------------------------------------------------------------------------------

 5-chloro-2-nitrobenzoic acid2.mop



     GEOMETRY OPTIMISED USING EIGENVECTOR FOLLOWING (EF).     
     SCF FIELD WAS ACHIEVED                                   


                              PM7 CALCULATION
                                                       MOPAC2016 (Version: 19.179W)
                                                       Fri Jul 26 14:48:44 2019
                                                       No. of days remaining = 337




          FINAL HEAT OF FORMATION =        -70.01315 KCAL/MOL =    -292.93501 KJ/MOL


          TOTAL ENERGY            =      -2545.06003 EV
          ELECTRONIC ENERGY       =     -12360.95406 EV  POINT GROUP:     Cs  
          CORE-CORE REPULSION     =       9815.89403 EV
          COSMO AREA              =        194.56 SQUARE ANGSTROMS
          COSMO VOLUME            =        199.31 CUBIC ANGSTROMS

          GRADIENT NORM           =          0.90379 = 0.21920 PER ATOM
          IONIZATION POTENTIAL    =         10.719743 EV
          HOMO LUMO ENERGIES (EV) =        -10.720 -1.811
          NO. OF FILLED LEVELS    =         34
          MOLECULAR WEIGHT        =        201.5659

          MOLECULAR DIMENSIONS (Angstroms)

            Atom       Atom       Distance
            H    17   Cl    13     7.06638
            H    14    O    12     5.31384
            O     9    O     8     2.15898


          SCF CALCULATIONS        =         20
 
          WALL-CLOCK TIME         =          0.594 SECONDS
          COMPUTATION TIME        =          0.936 SECONDS




  ATOM    CHEMICAL      BOND LENGTH      BOND ANGLE     TWIST ANGLE 
 NUMBER    SYMBOL       (ANGSTROMS)      (DEGREES)       (DEGREES) 
   (I)                     NA:I           NB:NA:I       NC:NB:NA:I       NA    NB    NC 
     1       C          0.00000000       0.0000000       0.0000000        0     0     0
     2       C          1.39344123  *    0.0000000       0.0000000        1     0     0
     3       C          1.39055282  *  118.6989684  *    0.0000000        2     1     0
     4       C          1.38950786  *  122.4466081  *    0.2765977  *     3     2     1
     5       C          1.39808128  *  118.8139577  *   -0.2042534  *     4     3     2
     6       C          1.39576148  *  119.4305945  *   -0.1302648  *     1     2     3
     7       N          1.47365130  *  116.7839887  *  179.5620151  *     6     1     2
     8       O          1.21425541  *  117.1762052  *   86.8470151  *     7     6     1
     9       O          1.21455675  *  117.0494016  *  -90.6714572  *     7     6     1
    10       C          1.48059969  *  116.4179565  * -179.8862958  *     5     4     3
    11       O          1.34985312  *  111.4143908  * -177.3387170  *    10     5     4
    12       O          1.20278235  *  126.6632741  *    2.4839577  *    10     5     4
    13      Cl          1.70278208  *  118.9185217  * -179.7649428  *     3     2     1
    14       H          1.09375369  *  120.0063816  *  179.8691100  *     1     2     3
    15       H          1.09305315  *  120.1402771  *  179.9745948  *     2     1     6
    16       H          1.09887001  *  121.4408799  *  179.8692068  *     4     3     2
    17       H          0.99482806  *  113.7762922  * -179.4710663  *    11    10     5

                             CARTESIAN COORDINATES

   1    C        0.000000000     0.000000000     0.000000000
   2    C        1.393441230     0.000000000     0.000000000
   3    C        2.061195408     1.219730095     0.000000000
   4    C        1.390650582     2.436722164     0.005660723
   5    C       -0.007429495     2.435741774     0.007211686
   6    C       -0.685833772     1.215637495     0.002763818
   7    N       -2.157879711     1.147632746    -0.007447121
   8    O       -2.716297335     1.056187390     1.066900919
   9    O       -2.702992406     1.141328681    -1.092786009
  10    C       -0.667098041     3.761260887     0.010667158
  11    O       -2.010445593     3.643071075     0.070265498
  12    O       -0.124174326     4.833782192    -0.029548057
  13   Cl        3.763953981     1.226261039    -0.006114625
  14    H       -0.546982343    -0.947155094    -0.002163742
  15    H        1.942283753    -0.945269321    -0.001729982
  16    H        1.935180219     3.391184620     0.007707763
  17    H       -2.490323758     4.514496599     0.066097524


           Empirical Formula: C7 H4 N O4 Cl  =    17 atoms



      MOLECULAR POINT GROUP   :   Cs  


                  EIGENVALUES  
 -37.56278 -32.54863 -32.07929 -30.99376 -30.68110 -28.64045 -27.97978 -26.52400
 -24.55488 -23.76861 -22.14632 -20.96171 -19.51587 -18.50294 -18.15435 -17.39455
 -17.25256 -16.71755 -16.37022 -16.15955 -15.98183 -14.99397 -14.59298 -14.04846
 -13.65653 -12.80797 -12.63481 -11.93323 -11.79184 -11.56103 -11.50459 -11.39572
 -11.20875 -10.71974  -1.81082  -1.38414  -0.22984   0.09670   0.32546   0.33893
   1.14954   1.29253   2.33940   2.80686   3.15649   3.21343   3.35228   3.60158
   3.76118   4.04003   4.16412   4.56355   4.78804   4.80022   4.85086   4.96472
  68.50174  68.51111  68.56040  68.86188  68.87690


              NET ATOMIC CHARGES AND DIPOLE CONTRIBUTIONS

  ATOM NO.   TYPE          CHARGE      No. of ELECS.   s-Pop       p-Pop       d-Pop       
    1          C          -0.130278        4.1303     1.08535     3.04493
    2          C          -0.120195        4.1202     1.08806     3.03214
    3          C           0.005879        3.9941     1.09663     2.89750
    4          C          -0.102199        4.1022     1.09204     3.01016
    5          C          -0.100093        4.1001     1.06807     3.03202
    6          C           0.013431        3.9866     1.08293     2.90363
    7          N           0.623514        4.3765     1.45064     2.92585
    8          O          -0.360337        6.3603     1.94094     4.41940
    9          O          -0.361907        6.3619     1.94100     4.42091
   10          C           0.631743        3.3683     1.09759     2.27067
   11          O          -0.535797        6.5358     1.83779     4.69801
   12          O          -0.467468        6.4675     1.87854     4.58893
   13         Cl          -0.041198        7.0412     1.98197     5.05269     0.00654
   14          H           0.185158        0.8148     0.81484
   15          H           0.182771        0.8172     0.81723
   16          H           0.204506        0.7955     0.79549
   17          H           0.372470        0.6275     0.62753
 DIPOLE           X         Y         Z       TOTAL
 POINT-CHG.     2.816    -1.952     0.066     3.427
 HYBRID        -0.763     0.430     0.002     0.876
 SUM            2.053    -1.522     0.068     2.556


          ATOMIC ORBITAL ELECTRON POPULATIONS

     Atom    s        px        py        pz      x^2-y^2     xz        z^2       yz        xy
    1  C   1.08535   1.00635   1.05008   0.98850
    2  C   1.08806   1.00544   1.05755   0.96915
    3  C   1.09663   0.89034   0.98904   1.01812
    4  C   1.09204   0.99209   1.06699   0.95107
    5  C   1.06807   0.99230   0.97565   1.06407
    6  C   1.08293   0.89003   0.98888   1.02472
    7  N   1.45064   1.00017   0.94702   0.97865
    8  O   1.94094   1.72583   1.52824   1.16533
    9  O   1.94100   1.73532   1.53450   1.15108
   10  C   1.09759   0.75103   0.84046   0.67918
   11  O   1.83779   1.33842   1.50304   1.85655
   12  O   1.87854   1.72338   1.37314   1.49240
   13 Cl   1.98197   1.10397   1.99041   1.95831   0.00251   0.00069   0.00129   0.00002   0.00202
   14  H   0.81484
   15  H   0.81723
   16  H   0.79549
   17  H   0.62753

 **********************
 *                    *
 * JOB ENDED NORMALLY *
 *                    *
 **********************



 TOTAL JOB TIME:             0.59 SECONDS

 == MOPAC DONE ==
