 *******************************************************************************
 ** Site#: 32691        For non-commercial use only    Version 19.179W 32BITS **
 *******************************************************************************
 ** Cite this program as: MOPAC2016, Version: 19.179W, James J. P. Stewart,   **
 ** Stewart Computational Chemistry, web: HTTP://OpenMOPAC.net. Days left: 340**
 *******************************************************************************
 **                                                                           **
 **                                MOPAC2016                                  **
 **                                                                           **
 *******************************************************************************

                              PM7 CALCULATION RESULTS

 *******************************************************************************
 *  CALCULATION DONE:                                Tue Jul 23 10:41:08 2019  *
 *  T=         - A TIME OF 172800.0 SECONDS REQUESTED
 *  DUMP=N     - RESTART FILE WRITTEN EVERY  7200.000 SECONDS
 *******************************************************************************

 5-fluoro-2-nitrophenol.mop

  ATOM    CHEMICAL      BOND LENGTH      BOND ANGLE     TWIST ANGLE 
 NUMBER    SYMBOL       (ANGSTROMS)      (DEGREES)       (DEGREES) 
   (I)                     NA:I           NB:NA:I       NC:NB:NA:I       NA    NB    NC 
     1       C          0.00000000       0.0000000       0.0000000        0     0     0
     2       C          1.34031000  *    0.0000000       0.0000000        1     0     0
     3       C          1.35022900  *  122.1063850  *    0.0000000        2     1     0
     4       C          1.35466800  *  118.4771170  *    0.1559890  *     3     2     1
     5       C          1.34608900  *  118.5556420  *   -0.4557580  *     4     3     2
     6       C          1.33774200  *  119.4552170  *    0.0959200  *     1     2     3
     7       O          1.36696200  *  124.0126110  * -179.3394750  *     4     3     2
     8       N          1.25844700  *  119.0152970  *  179.9644640  *     3     2     1
     9       O          1.31037000  *  123.9426790  * -179.4567920  *     8     3     2
    10       O          1.31377800  *  122.9645680  *    0.5800010  *     8     3     2
    11       F          1.32200600  *  120.5835590  *  179.8125260  *     6     1     2
    12       H          1.10272800  *  120.5592610  *  179.9856310  *     1     2     3
    13       H          1.10369500  *  116.0074910  * -179.9158820  *     2     1     6
    14       H          1.10335200  *  119.0669660  * -179.4634550  *     5     4     3
    15       H          0.97164900  *  106.8047770  *  174.4970150  *     7     4     3
 


          CARTESIAN COORDINATES 

    NO.       ATOM           X           Y           Z

     1         C          0.0000      0.0000      0.0000
     2         C          1.3403      0.0000      0.0000
     3         C          2.0579      1.1437      0.0000
     4         C          1.3926      2.3237      0.0032
     5         C          0.0467      2.3035     -0.0031
     6         C         -0.6578      1.1648     -0.0020
     7         O          2.0040      3.5463     -0.0095
     8         N          3.3146      1.0759      0.0007
     9         O          4.1038      2.1219      0.0111
    10         O          3.9689     -0.0633     -0.0098
    11         F         -1.9796      1.1909     -0.0057
    12         H         -0.5607     -0.9496     -0.0002
    13         H          1.8243     -0.9919      0.0002
    14         H         -0.5037      3.2598     -0.0095
    15         H          1.3005      4.2113     -0.0928

 General Reference for PM7:
 "Optimization of Parameters for Semiempirical Methods VI: More Modifications to the 
 NDDO Approximations and Re-optimization of Parameters", J. J. P. Stewart, J. Mol. Mod., 1:32, 19 (2013)
 http://www.springerlink.com/openurl.asp?genre=article&id=doi:10.1007/s00894-012-1667-x

           Empirical Formula: C6 H4 N O3 F  =    15 atoms



      MOLECULAR POINT GROUP   :   Cs  


      RHF CALCULATION, NO. OF DOUBLY OCCUPIED LEVELS = 29


          Geometry optimization using EF

          DIAGONAL MATRIX USED AS START HESSIAN

 CYCLE:     1 TIME:   0.031 TIME LEFT:  2.00D  GRAD.:   581.139 HEAT: -16.36272
 CYCLE:     2 TIME:   0.031 TIME LEFT:  2.00D  GRAD.:   641.967 HEAT: -19.45902
 CYCLE:     3 TIME:   0.016 TIME LEFT:  2.00D  GRAD.:   249.085 HEAT: -56.98446
 CYCLE:     4 TIME:   0.016 TIME LEFT:  2.00D  GRAD.:   606.754 HEAT: -61.83204
 CYCLE:     5 TIME:   0.016 TIME LEFT:  2.00D  GRAD.:   311.255 HEAT: -65.02908
 CYCLE:     6 TIME:   0.027 TIME LEFT:  2.00D  GRAD.:   120.832 HEAT: -68.07906
 CYCLE:     7 TIME:   0.035 TIME LEFT:  2.00D  GRAD.:    59.512 HEAT: -69.56234
 CYCLE:     8 TIME:   0.016 TIME LEFT:  2.00D  GRAD.:    20.223 HEAT: -69.88104
 CYCLE:     9 TIME:   0.016 TIME LEFT:  2.00D  GRAD.:    12.807 HEAT: -69.99731
 CYCLE:    10 TIME:   0.012 TIME LEFT:  2.00D  GRAD.:    11.657 HEAT: -70.01492
 CYCLE:    11 TIME:   0.020 TIME LEFT:  2.00D  GRAD.:    18.950 HEAT: -70.06313
 CYCLE:    12 TIME:   0.016 TIME LEFT:  2.00D  GRAD.:     2.639 HEAT: -70.10089
 CYCLE:    13 TIME:   0.012 TIME LEFT:  2.00D  GRAD.:     1.009 HEAT: -70.10782
 CYCLE:    14 TIME:   0.000 TIME LEFT:  2.00D  GRAD.:     1.330 HEAT: -70.11229
 CYCLE:    15 TIME:   0.020 TIME LEFT:  2.00D  GRAD.:     1.378 HEAT: -70.11539
 CYCLE:    16 TIME:   0.012 TIME LEFT:  2.00D  GRAD.:     1.041 HEAT: -70.12073
 CYCLE:    17 TIME:   0.000 TIME LEFT:  2.00D  GRAD.:     0.774 HEAT: -70.12277

     GRADIENT =  0.77403 IS LESS THAN CUTOFF =  1.00000



 -------------------------------------------------------------------------------

 5-fluoro-2-nitrophenol.mop



     GEOMETRY OPTIMISED USING EIGENVECTOR FOLLOWING (EF).     
     SCF FIELD WAS ACHIEVED                                   


                              PM7 CALCULATION
                                                       MOPAC2016 (Version: 19.179W)
                                                       Tue Jul 23 10:41:08 2019
                                                       No. of days remaining = 340




          FINAL HEAT OF FORMATION =        -70.12277 KCAL/MOL =    -293.39365 KJ/MOL


          TOTAL ENERGY            =      -2325.51764 EV
          ELECTRONIC ENERGY       =      -9870.51343 EV  POINT GROUP:     Cs  
          CORE-CORE REPULSION     =       7544.99579 EV
          COSMO AREA              =        162.65 SQUARE ANGSTROMS
          COSMO VOLUME            =        157.62 CUBIC ANGSTROMS

          GRADIENT NORM           =          0.77403 = 0.19985 PER ATOM
          IONIZATION POTENTIAL    =         10.359446 EV
          HOMO LUMO ENERGIES (EV) =        -10.359 -1.450
          NO. OF FILLED LEVELS    =         29
          MOLECULAR WEIGHT        =        157.1009

          MOLECULAR DIMENSIONS (Angstroms)

            Atom       Atom       Distance
            F    11    O     9     6.25144
            H    15    H    13     5.32488
            H    14    O    10     0.02728


          SCF CALCULATIONS        =         20
 
          WALL-CLOCK TIME         =          0.328 SECONDS
          COMPUTATION TIME        =          0.515 SECONDS




  ATOM    CHEMICAL      BOND LENGTH      BOND ANGLE     TWIST ANGLE 
 NUMBER    SYMBOL       (ANGSTROMS)      (DEGREES)       (DEGREES) 
   (I)                     NA:I           NB:NA:I       NC:NB:NA:I       NA    NB    NC 
     1       C          0.00000000       0.0000000       0.0000000        0     0     0
     2       C          1.38529388  *    0.0000000       0.0000000        1     0     0
     3       C          1.40522575  *  120.7864125  *    0.0000000        2     1     0
     4       C          1.40983069  *  119.2986925  *    0.1277240  *     3     2     1
     5       C          1.40276314  *  120.8545342  *   -0.1660219  *     4     3     2
     6       C          1.40019433  *  118.3498358  *   -0.0178289  *     1     2     3
     7       O          1.33971825  *  117.4015883  *  179.8561580  *     4     3     2
     8       N          1.44661307  *  118.4461599  * -179.9312286  *     3     2     1
     9       O          1.21528363  *  119.7182288  * -179.3583030  *     8     3     2
    10       O          1.22513878  *  116.9330246  *    0.6389101  *     8     3     2
    11       F          1.32007225  *  118.4887685  *  179.9721720  *     6     1     2
    12       H          1.08964328  *  120.6762742  *  179.9934224  *     1     2     3
    13       H          1.10033711  *  120.2400081  * -179.9625844  *     2     1     6
    14       H          1.08689083  *  121.0023280  * -179.9401286  *     5     4     3
    15       H          0.99790063  *  112.6558874  *  179.3170221  *     7     4     3

                             CARTESIAN COORDINATES

   1    C        0.000000000     0.000000000     0.000000000
   2    C        1.385293884     0.000000000     0.000000000
   3    C        2.104543442     1.207203170     0.000000000
   4    C        1.401445051     2.429196508     0.002740772
   5    C       -0.001129157     2.452205466     0.001963628
   6    C       -0.664887695     1.232261491     0.000383446
   7    O        2.124892880     3.556786812     0.005627919
   8    N        3.549949186     1.148132991    -0.001526714
   9    O        4.195012474     2.178020703     0.010261271
  10    O        4.059799989     0.034203946    -0.014916389
  11    F       -1.984955945     1.235462683    -0.000179069
  12    H       -0.555921634    -0.937162525    -0.000107587
  13    H        1.939449317    -0.950606478    -0.000916573
  14    H       -0.545601524     3.392886190     0.003098017
  15    H        1.557432547     4.377585513    -0.003533047


           Empirical Formula: C6 H4 N O3 F  =    15 atoms



      MOLECULAR POINT GROUP   :   Cs  


                  EIGENVALUES  
 -42.08982 -37.12718 -32.25527 -31.36994 -30.39895 -27.62293 -26.72088 -24.68599
 -22.80995 -21.59739 -19.70746 -18.96545 -18.29881 -17.64262 -17.59614 -17.22636
 -16.96825 -16.25290 -15.77228 -15.30285 -15.03658 -14.07009 -13.45496 -13.29795
 -11.18564 -11.13667 -11.10843 -10.99068 -10.35945  -1.45020  -0.89432   0.36582
   0.67979   1.36412   1.39058   2.05747   2.63449   2.97624   3.43495   3.56907
   3.63395   4.25572   4.42260   4.66518   4.86494   5.05562   5.23098   5.32159


              NET ATOMIC CHARGES AND DIPOLE CONTRIBUTIONS

  ATOM NO.   TYPE          CHARGE      No. of ELECS.   s-Pop       p-Pop       
    1          C          -0.317095        4.3171     1.07433     3.24277
    2          C           0.029489        3.9705     1.09627     2.87424
    3          C          -0.232344        4.2323     1.06274     3.16961
    4          C           0.375809        3.6242     1.08116     2.54303
    5          C          -0.414936        4.4149     1.07332     3.34161
    6          C           0.328932        3.6711     1.10381     2.56726
    7          O          -0.383215        6.3832     1.84101     4.54220
    8          N           0.652758        4.3472     1.43982     2.90742
    9          O          -0.360907        6.3609     1.94090     4.42000
   10          O          -0.431418        6.4314     1.94244     4.48898
   11          F          -0.156875        7.1569     1.96614     5.19073
   12          H           0.191205        0.8088     0.80880
   13          H           0.194140        0.8059     0.80586
   14          H           0.192517        0.8075     0.80748
   15          H           0.331940        0.6681     0.66806
 DIPOLE           X         Y         Z       TOTAL
 POINT-CHG.    -4.364     0.743    -0.004     4.427
 HYBRID        -0.086     0.665    -0.000     0.671
 SUM           -4.451     1.408    -0.004     4.668


          ATOMIC ORBITAL ELECTRON POPULATIONS

     Atom    s        px        py        pz   
    1  C   1.07433   1.01977   1.06926   1.15374
    2  C   1.09627   0.98891   1.04677   0.83856
    3  C   1.06274   0.90192   0.99327   1.27442
    4  C   1.08116   0.89898   0.83365   0.81040
    5  C   1.07332   1.01618   1.09081   1.23462
    6  C   1.10381   0.78366   0.95226   0.83134
    7  O   1.84101   1.42691   1.26168   1.85362
    8  N   1.43982   0.99284   0.97302   0.94157
    9  O   1.94090   1.66279   1.22718   1.53003
   10  O   1.94244   1.76967   1.14214   1.57718
   11  F   1.96614   1.25012   1.98625   1.95436
   12  H   0.80880
   13  H   0.80586
   14  H   0.80748
   15  H   0.66806

 **********************
 *                    *
 * JOB ENDED NORMALLY *
 *                    *
 **********************



 TOTAL JOB TIME:             0.33 SECONDS

 == MOPAC DONE ==
