 *******************************************************************************
 ** Site#: 32691        For non-commercial use only    Version 19.179W 32BITS **
 *******************************************************************************
 ** Cite this program as: MOPAC2016, Version: 19.179W, James J. P. Stewart,   **
 ** Stewart Computational Chemistry, web: HTTP://OpenMOPAC.net. Days left: 337**
 *******************************************************************************
 **                                                                           **
 **                                MOPAC2016                                  **
 **                                                                           **
 *******************************************************************************

                              PM7 CALCULATION RESULTS

 *******************************************************************************
 *  CALCULATION DONE:                                Fri Jul 26 13:51:23 2019  *
 *  T=         - A TIME OF 172800.0 SECONDS REQUESTED
 *  DUMP=N     - RESTART FILE WRITTEN EVERY  7200.000 SECONDS
 *******************************************************************************

 5-fluoro-2-nitropheno2l.mop

  ATOM    CHEMICAL      BOND LENGTH      BOND ANGLE     TWIST ANGLE 
 NUMBER    SYMBOL       (ANGSTROMS)      (DEGREES)       (DEGREES) 
   (I)                     NA:I           NB:NA:I       NC:NB:NA:I       NA    NB    NC 
     1       C          0.00000000       0.0000000       0.0000000        0     0     0
     2       C          1.34623400  *    0.0000000       0.0000000        1     0     0
     3       C          1.33924600  *  122.5792710  *    0.0000000        2     1     0
     4       C          1.33807200  *  118.8328690  *   -0.0847770  *     3     2     1
     5       C          1.34030200  *  119.4959550  *   -0.0361790  *     4     3     2
     6       C          1.35378400  *  118.4268490  *    0.2289030  *     1     2     3
     7       O          1.36499600  *  117.5894800  *  179.8588900  *     1     2     3
     8       N          1.25729200  *  121.9552520  *  179.9258550  *     6     1     2
     9       O          1.30905500  *  123.4098030  *   -0.2439010  *     8     6     1
    10       O          1.31315200  *  123.3700240  *  179.6954770  *     8     6     1
    11       F          1.32210800  *  120.7175460  *  179.9448960  *     3     2     1
    12       H          1.10344900  *  119.0036210  * -179.7935150  *     2     1     6
    13       H          1.10275500  *  119.9941930  * -179.9971210  *     4     3     2
    14       H          1.10368400  *  116.2679890  * -179.9672740  *     5     4     3
    15       H          0.96580000  *  115.6630720  * -175.4118580  *     7     1     2
 


          CARTESIAN COORDINATES 

    NO.       ATOM           X           Y           Z

     1         C          0.0000      0.0000      0.0000
     2         C          1.3462      0.0000      0.0000
     3         C          2.0674      1.1285      0.0000
     4         C          1.4271      2.3035     -0.0017
     5         C          0.0870      2.3247     -0.0042
     6         C         -0.6445      1.1905     -0.0048
     7         O         -0.6322     -1.2098     -0.0030
     8         N         -1.8994      1.2679     -0.0064
     9         O         -2.6860      0.2216     -0.0085
    10         O         -2.5528      2.4069     -0.0052
    11         F          3.3888      1.0856      0.0011
    12         H          1.8813     -0.9651      0.0004
    13         H          2.0019      3.2445     -0.0018
    14         H         -0.3857      3.3220     -0.0061
    15         H         -1.5950     -1.1784     -0.0725

 General Reference for PM7:
 "Optimization of Parameters for Semiempirical Methods VI: More Modifications to the 
 NDDO Approximations and Re-optimization of Parameters", J. J. P. Stewart, J. Mol. Mod., 1:32, 19 (2013)
 http://www.springerlink.com/openurl.asp?genre=article&id=doi:10.1007/s00894-012-1667-x

           Empirical Formula: C6 H4 N O3 F  =    15 atoms



      MOLECULAR POINT GROUP   :   Cs  


      RHF CALCULATION, NO. OF DOUBLY OCCUPIED LEVELS = 29


          Geometry optimization using EF

          DIAGONAL MATRIX USED AS START HESSIAN

 CYCLE:     1 TIME:   0.016 TIME LEFT:  2.00D  GRAD.:   682.009 HEAT: -26.77058
 CYCLE:     2 TIME:   0.047 TIME LEFT:  2.00D  GRAD.:   580.272 HEAT: -28.76658
 CYCLE:     3 TIME:   0.016 TIME LEFT:  2.00D  GRAD.:   324.082 HEAT: -63.88178
 CYCLE:     4 TIME:   0.031 TIME LEFT:  2.00D  GRAD.:   380.006 HEAT: -68.34640
 CYCLE:     5 TIME:   0.016 TIME LEFT:  2.00D  GRAD.:    82.354 HEAT: -74.40586
 CYCLE:     6 TIME:   0.016 TIME LEFT:  2.00D  GRAD.:    26.260 HEAT: -77.04043
 CYCLE:     7 TIME:   0.000 TIME LEFT:  2.00D  GRAD.:    30.091 HEAT: -77.59260
 CYCLE:     8 TIME:   0.031 TIME LEFT:  2.00D  GRAD.:    25.075 HEAT: -77.79563
 CYCLE:     9 TIME:   0.016 TIME LEFT:  2.00D  GRAD.:     8.382 HEAT: -77.98169
 CYCLE:    10 TIME:   0.062 TIME LEFT:  2.00D  GRAD.:     7.126 HEAT: -78.06996
 CYCLE:    11 TIME:   0.016 TIME LEFT:  2.00D  GRAD.:     3.821 HEAT: -78.09353
 CYCLE:    12 TIME:   0.016 TIME LEFT:  2.00D  GRAD.:     2.063 HEAT: -78.09744
 CYCLE:    13 TIME:   0.016 TIME LEFT:  2.00D  GRAD.:     4.467 HEAT: -78.09743
 CYCLE:    14 TIME:   0.016 TIME LEFT:  2.00D  GRAD.:     1.903 HEAT: -78.10305
 CYCLE:    15 TIME:   0.016 TIME LEFT:  2.00D  GRAD.:     0.699 HEAT: -78.10453

     GRADIENT =  0.69873 IS LESS THAN CUTOFF =  1.00000



 -------------------------------------------------------------------------------

 5-fluoro-2-nitropheno2l.mop



     GEOMETRY OPTIMISED USING EIGENVECTOR FOLLOWING (EF).     
     SCF FIELD WAS ACHIEVED                                   


                              PM7 CALCULATION
                                                       MOPAC2016 (Version: 19.179W)
                                                       Fri Jul 26 13:51:23 2019
                                                       No. of days remaining = 337




          FINAL HEAT OF FORMATION =        -78.10453 KCAL/MOL =    -326.78935 KJ/MOL


          TOTAL ENERGY            =      -2325.77556 EV
          ELECTRONIC ENERGY       =      -9891.08793 EV  POINT GROUP:     Cs  
          CORE-CORE REPULSION     =       7565.31236 EV
          COSMO AREA              =        161.04 SQUARE ANGSTROMS
          COSMO VOLUME            =        156.44 CUBIC ANGSTROMS

          GRADIENT NORM           =          0.69873 = 0.18041 PER ATOM
          IONIZATION POTENTIAL    =         10.357534 EV
          HOMO LUMO ENERGIES (EV) =        -10.358 -1.659
          NO. OF FILLED LEVELS    =         29
          MOLECULAR WEIGHT        =        157.1009

          MOLECULAR DIMENSIONS (Angstroms)

            Atom       Atom       Distance
            F    11    O     9     6.21814
            H    12    H    14     4.70606
            O     7    F    11     0.02144


          SCF CALCULATIONS        =         20
 
          WALL-CLOCK TIME         =          0.359 SECONDS
          COMPUTATION TIME        =          0.499 SECONDS




  ATOM    CHEMICAL      BOND LENGTH      BOND ANGLE     TWIST ANGLE 
 NUMBER    SYMBOL       (ANGSTROMS)      (DEGREES)       (DEGREES) 
   (I)                     NA:I           NB:NA:I       NC:NB:NA:I       NA    NB    NC 
     1       C          0.00000000       0.0000000       0.0000000        0     0     0
     2       C          1.40769303  *    0.0000000       0.0000000        1     0     0
     3       C          1.38255571  *  117.6180274  *    0.0000000        2     1     0
     4       C          1.40825532  *  123.3642167  *   -0.0636046  *     3     2     1
     5       C          1.37917192  *  118.3930121  *   -0.1174619  *     4     3     2
     6       C          1.41443462  *  120.4815580  *    0.3473329  *     1     2     3
     7       O          1.32865046  *  115.7027051  * -179.7924106  *     1     2     3
     8       N          1.43165057  *  121.4196346  *  179.6426943  *     6     1     2
     9       O          1.23708012  *  118.3616053  *   -0.5535478  *     8     6     1
    10       O          1.21536602  *  119.4352247  *  179.4784022  *     8     6     1
    11       F          1.31996330  *  118.6570952  *  179.9484806  *     3     2     1
    12       H          1.09071365  *  119.4938671  * -179.6944134  *     2     1     6
    13       H          1.08942661  *  120.5765036  *  179.9056572  *     4     3     2
    14       H          1.09863188  *  120.4578494  * -179.8935820  *     5     4     3
    15       H          1.02686897  *  111.3543012  * -179.0356237  *     7     1     2

                             CARTESIAN COORDINATES

   1    C        0.000000000     0.000000000     0.000000000
   2    C        1.407693032     0.000000000     0.000000000
   3    C        2.048611080     1.225024221     0.000000000
   4    C        1.365494327     2.456500106    -0.001305669
   5    C       -0.013590264     2.441461748    -0.005141742
   6    C       -0.717487519     1.218926717    -0.007389350
   7    O       -0.576237865    -1.197181334     0.004337549
   8    N       -2.148925733     1.242330839    -0.015150229
   9    O       -2.754249782     0.163518184    -0.025793421
  10    O       -2.728848319     2.310409785    -0.011726999
  11    F        3.368356909     1.248960864     0.001041502
  12    H        1.944684513    -0.949366067     0.000691718
  13    H        1.916872456     3.396090404     0.000297556
  14    H       -0.580778858     3.382355366    -0.008023940
  15    H       -1.600028866    -1.119440551    -0.012040658


           Empirical Formula: C6 H4 N O3 F  =    15 atoms



      MOLECULAR POINT GROUP   :   Cs  


                  EIGENVALUES  
 -42.08536 -37.62938 -32.23202 -31.42626 -30.54736 -27.88757 -26.82095 -24.88838
 -22.40117 -22.31594 -19.76327 -18.95240 -18.55298 -17.82341 -17.62895 -17.49149
 -17.21683 -16.10115 -15.73442 -15.35959 -14.92754 -14.59849 -13.32448 -13.26872
 -11.85530 -11.78073 -11.61383 -11.14807 -10.35753  -1.65874  -0.82745  -0.03091
   0.30211   1.28713   1.48162   2.09419   2.45814   2.98627   3.35018   3.47979
   3.74592   3.91004   4.33696   4.55094   4.78635   4.97680   5.26329   5.43193


              NET ATOMIC CHARGES AND DIPOLE CONTRIBUTIONS

  ATOM NO.   TYPE          CHARGE      No. of ELECS.   s-Pop       p-Pop       
    1          C           0.416631        3.5834     1.08195     2.50142
    2          C          -0.363114        4.3631     1.07214     3.29098
    3          C           0.327589        3.6724     1.10663     2.56578
    4          C          -0.318053        4.3181     1.07412     3.24393
    5          C           0.034638        3.9654     1.09302     2.87235
    6          C          -0.311864        4.3119     1.06055     3.25131
    7          O          -0.434734        6.4347     1.84395     4.59078
    8          N           0.668486        4.3315     1.43916     2.89235
    9          O          -0.475565        6.4756     1.94144     4.53413
   10          O          -0.360226        6.3602     1.94075     4.41947
   11          F          -0.154223        7.1542     1.96617     5.18805
   12          H           0.210270        0.7897     0.78973
   13          H           0.190727        0.8093     0.80927
   14          H           0.186718        0.8133     0.81328
   15          H           0.382722        0.6173     0.61728
 DIPOLE           X         Y         Z       TOTAL
 POINT-CHG.     2.834     1.076     0.005     3.031
 HYBRID        -0.511    -0.352    -0.002     0.620
 SUM            2.323     0.723     0.003     2.433


          ATOMIC ORBITAL ELECTRON POPULATIONS

     Atom    s        px        py        pz   
    1  C   1.08195   0.91893   0.80626   0.77623
    2  C   1.07214   1.00554   1.08691   1.19852
    3  C   1.10663   0.78583   0.95435   0.82559
    4  C   1.07412   1.01660   1.07128   1.15605
    5  C   1.09302   0.99338   1.03489   0.84408
    6  C   1.06055   0.88461   1.02597   1.34073
    7  O   1.84395   1.42566   1.33528   1.82984
    8  N   1.43916   0.99707   0.96784   0.92744
    9  O   1.94144   1.69811   1.21426   1.62176
   10  O   1.94075   1.71863   1.17476   1.52609
   11  F   1.96617   1.24856   1.98599   1.95350
   12  H   0.78973
   13  H   0.80927
   14  H   0.81328
   15  H   0.61728

 **********************
 *                    *
 * JOB ENDED NORMALLY *
 *                    *
 **********************



 TOTAL JOB TIME:             0.38 SECONDS

 == MOPAC DONE ==
